## SLURM PROLOG ###############################################################
##    Job ID : 19320914
##  Job Name : abinit_mult_pert
##  Nodelist : node1051
##      CPUs : 
##  Mem/Node : 49152 MB
## Directory : /gpfs/scratch/ssamanta/ENGN_2930/mult_pert
##   Started : Thu Apr 26 11:58:55 EDT 2018
###############################################################################
module: loading 'abinit/8.0.7'
  ABINIT 8.0.7
  
  Give name for formatted input file: 
Si_in.txt
  Give name for formatted output file:
Si_out.txt
  Give root name for generic input files:
Si_i
  Give root name for generic output files:
Si_o
  Give root name for generic temporary files:
Si_

.Version 8.0.7 of ABINIT 
.(MPI version, prepared for a x86_64_linux_gnu4.9 computer) 

.Copyright (C) 1998-2016 ABINIT group . 
 ABINIT comes with ABSOLUTELY NO WARRANTY.
 It is free software, and you are welcome to redistribute it
 under certain conditions (GNU General Public License,
 see ~abinit/COPYING or http://www.gnu.org/copyleft/gpl.txt).

 ABINIT is a project of the Universite Catholique de Louvain,
 Corning Inc. and other collaborators, see ~abinit/doc/developers/contributors.txt .
 Please read ~abinit/doc/users/acknowledgments.html for suggested
 acknowledgments of the ABINIT effort.
 For more information, see http://www.abinit.org .

.Starting date : Thu 26 Apr 2018.
- ( at 11h58 )
  

 ++++++++++++++++++++++++++++++++++++++++++++++++++++++++++++++++++++++++++++++

 === Build Information === 
  Version       : 8.0.7
  Build target  : x86_64_linux_gnu4.9
  Build date    : 20160627

 === Compiler Suite === 
  C compiler       : gnu4.9
  C++ compiler     : gnu4.9
  Fortran compiler : gnu4.9
  CFLAGS           :  -g -O2 -mtune=native -march=native
  CXXFLAGS         :  -g -O2 -mtune=native -march=native
  FCFLAGS          :  -g -ffree-line-length-none
  FC_LDFLAGS       : 

 === Optimizations === 
  Debug level        : basic
  Optimization level : standard
  Architecture       : intel_xeon

 === Multicore === 
  Parallel build : yes
  Parallel I/O   : auto
  openMP support : no
  GPU support    : no

 === Connectors / Fallbacks === 
  Connectors on : yes
  Fallbacks on  : yes
  DFT flavor    : none
  FFT flavor    : none
  LINALG flavor : netlib-fallback
  MATH flavor   : none
  TIMER flavor  : abinit
  TRIO flavor   : none

 === Experimental features === 
  Bindings            : @enable_bindings@
  Exports             : no
  GW double-precision : no

 ++++++++++++++++++++++++++++++++++++++++++++++++++++++++++++++++++++++++++++++


 ++++++++++++++++++++++++++++++++++++++++++++++++++++++++++++++++++++++++++++++
 Default optimizations:
   -O2 -mtune=native -march=native


 Optimizations for 20_datashare:
   -O0


 ++++++++++++++++++++++++++++++++++++++++++++++++++++++++++++++++++++++++++++++


 ++++++++++++++++++++++++++++++++++++++++++++++++++++++++++++++++++++++++++++++
 CPP options activated during the build:

                    CC_GNU                   CXX_GNU                    FC_GNU
 
 HAVE_FC_ALLOCATABLE_DT...             HAVE_FC_ASYNC         HAVE_FC_BACKTRACE
 
  HAVE_FC_COMMAND_ARGUMENT      HAVE_FC_COMMAND_LINE        HAVE_FC_CONTIGUOUS
 
           HAVE_FC_CPUTIME              HAVE_FC_EXIT             HAVE_FC_FLUSH
 
             HAVE_FC_GAMMA            HAVE_FC_GETENV          HAVE_FC_INT_QUAD
 
             HAVE_FC_IOMSG     HAVE_FC_ISO_C_BINDING  HAVE_FC_ISO_FORTRAN_2008
 
        HAVE_FC_LONG_LINES        HAVE_FC_MOVE_ALLOC           HAVE_FC_PRIVATE
 
         HAVE_FC_PROTECTED         HAVE_FC_STREAM_IO            HAVE_FC_SYSTEM
 
          HAVE_FORTRAN2003        HAVE_LIBPAW_ABINIT      HAVE_LIBTETRA_ABINIT
 
                  HAVE_MPI                 HAVE_MPI1               HAVE_MPI_IO
 
 HAVE_MPI_TYPE_CREATE_S...                HAVE_NUMPY             HAVE_OS_LINUX
 
                HAVE_TIMER         HAVE_TIMER_ABINIT            HAVE_TIMER_MPI
 
         HAVE_TIMER_SERIAL              USE_MACROAVE                            
 ++++++++++++++++++++++++++++++++++++++++++++++++++++++++++++++++++++++++++++++

- input  file    -> Si_in.txt
- output file    -> Si_out.txt
- root for input  files -> Si_i
- root for output files -> Si_o

-instrng: 195 lines of input have been read from file Si_in.txt

  status : statnu, output_rate, shift_rate=           1           0           1
 level,routine=           3 init istatr   
 active(level)=           1
 counter,actual_counter(level,1:2)=           0           0           0
 List of active levels :
  Active level number=           3

 Please give name of formatted atomic psp file
 iofn2 : for atom type 1, psp file is 14si.txt
  read the values zionpsp=  4.0 , pspcod=   1 , lmax=   2

 inpspheads: deduce mpsang = 3, n1xccc = 2501.

 invars1m : enter jdtset= 1
 invars1 : treat image number: 1

 symlatt : the Bravais lattice is cF (face-centered cubic)
  xred   is defined in input file
 ingeo : takes atomic coordinates from input array xred

 symlatt : the Bravais lattice is cF (face-centered cubic)

 symlatt : the Bravais lattice is cF (face-centered cubic)

--- !COMMENT
src_file: symbrav.F90
src_line: 201
message: |
    The Bravais lattice determined only from the primitive
    vectors, bravais(1)=  7, is more symmetric
    than the real one, iholohedry=  5, obtained by taking into
    account the atomic positions. Start deforming the primitive vector set.
...


 symlatt : the Bravais lattice is hR (rhombohedral)
 symspgr : spgroup= 166  R-3 m   (=D3d^5)
 ingeo : angdeg(1:3)=   60.00000000   60.00000000   60.00000000
       Simple Lattice Grid

 invars1m : enter jdtset= 2
 invars1 : treat image number: 1

 symlatt : the Bravais lattice is cF (face-centered cubic)
  xred   is defined in input file
 ingeo : takes atomic coordinates from input array xred

 symlatt : the Bravais lattice is cF (face-centered cubic)

 symlatt : the Bravais lattice is cF (face-centered cubic)

--- !COMMENT
src_file: symbrav.F90
src_line: 201
message: |
    The Bravais lattice determined only from the primitive
    vectors, bravais(1)=  7, is more symmetric
    than the real one, iholohedry=  5, obtained by taking into
    account the atomic positions. Start deforming the primitive vector set.
...


 symlatt : the Bravais lattice is hR (rhombohedral)
 symspgr : spgroup= 166  R-3 m   (=D3d^5)
 ingeo : angdeg(1:3)=   60.00000000   60.00000000   60.00000000
       Simple Lattice Grid

 invars1m : enter jdtset= 3
 invars1 : treat image number: 1

 symlatt : the Bravais lattice is cF (face-centered cubic)
  xred   is defined in input file
 ingeo : takes atomic coordinates from input array xred

 symlatt : the Bravais lattice is cF (face-centered cubic)

 symlatt : the Bravais lattice is cF (face-centered cubic)

--- !COMMENT
src_file: symbrav.F90
src_line: 201
message: |
    The Bravais lattice determined only from the primitive
    vectors, bravais(1)=  7, is more symmetric
    than the real one, iholohedry=  5, obtained by taking into
    account the atomic positions. Start deforming the primitive vector set.
...


 symlatt : the Bravais lattice is hR (rhombohedral)
 symspgr : spgroup= 166  R-3 m   (=D3d^5)
 ingeo : angdeg(1:3)=   60.00000000   60.00000000   60.00000000
       Simple Lattice Grid

 invars1m : enter jdtset= 4
 invars1 : treat image number: 1

 symlatt : the Bravais lattice is cF (face-centered cubic)
  xred   is defined in input file
 ingeo : takes atomic coordinates from input array xred

 symlatt : the Bravais lattice is cF (face-centered cubic)

 symlatt : the Bravais lattice is cF (face-centered cubic)

--- !COMMENT
src_file: symbrav.F90
src_line: 201
message: |
    The Bravais lattice determined only from the primitive
    vectors, bravais(1)=  7, is more symmetric
    than the real one, iholohedry=  5, obtained by taking into
    account the atomic positions. Start deforming the primitive vector set.
...


 symlatt : the Bravais lattice is hR (rhombohedral)
 symspgr : spgroup= 166  R-3 m   (=D3d^5)
 ingeo : angdeg(1:3)=   60.00000000   60.00000000   60.00000000
       Simple Lattice Grid

 invars1m : enter jdtset= 5
 invars1 : treat image number: 1

 symlatt : the Bravais lattice is cF (face-centered cubic)
  xred   is defined in input file
 ingeo : takes atomic coordinates from input array xred

 symlatt : the Bravais lattice is cF (face-centered cubic)

 symlatt : the Bravais lattice is cF (face-centered cubic)

--- !COMMENT
src_file: symbrav.F90
src_line: 201
message: |
    The Bravais lattice determined only from the primitive
    vectors, bravais(1)=  7, is more symmetric
    than the real one, iholohedry=  5, obtained by taking into
    account the atomic positions. Start deforming the primitive vector set.
...


 symlatt : the Bravais lattice is hR (rhombohedral)
 symspgr : spgroup= 166  R-3 m   (=D3d^5)
 ingeo : angdeg(1:3)=   60.00000000   60.00000000   60.00000000
       Simple Lattice Grid

 invars1m : enter jdtset= 6
 invars1 : treat image number: 1

 symlatt : the Bravais lattice is cF (face-centered cubic)
  xred   is defined in input file
 ingeo : takes atomic coordinates from input array xred

 symlatt : the Bravais lattice is cF (face-centered cubic)

 symlatt : the Bravais lattice is cF (face-centered cubic)

--- !COMMENT
src_file: symbrav.F90
src_line: 201
message: |
    The Bravais lattice determined only from the primitive
    vectors, bravais(1)=  7, is more symmetric
    than the real one, iholohedry=  5, obtained by taking into
    account the atomic positions. Start deforming the primitive vector set.
...


 symlatt : the Bravais lattice is hR (rhombohedral)
 symspgr : spgroup= 166  R-3 m   (=D3d^5)
 ingeo : angdeg(1:3)=   60.00000000   60.00000000   60.00000000
       Simple Lattice Grid

 invars1m : enter jdtset= 7
 invars1 : treat image number: 1

 symlatt : the Bravais lattice is cF (face-centered cubic)
  xred   is defined in input file
 ingeo : takes atomic coordinates from input array xred

 symlatt : the Bravais lattice is cF (face-centered cubic)

 symlatt : the Bravais lattice is cF (face-centered cubic)

--- !COMMENT
src_file: symbrav.F90
src_line: 201
message: |
    The Bravais lattice determined only from the primitive
    vectors, bravais(1)=  7, is more symmetric
    than the real one, iholohedry=  5, obtained by taking into
    account the atomic positions. Start deforming the primitive vector set.
...


 symlatt : the Bravais lattice is hR (rhombohedral)
 symspgr : spgroup= 166  R-3 m   (=D3d^5)
 ingeo : angdeg(1:3)=   60.00000000   60.00000000   60.00000000
       Simple Lattice Grid

 invars1m : enter jdtset= 8
 invars1 : treat image number: 1

 symlatt : the Bravais lattice is cF (face-centered cubic)
  xred   is defined in input file
 ingeo : takes atomic coordinates from input array xred

 symlatt : the Bravais lattice is cF (face-centered cubic)

 symlatt : the Bravais lattice is cF (face-centered cubic)

--- !COMMENT
src_file: symbrav.F90
src_line: 201
message: |
    The Bravais lattice determined only from the primitive
    vectors, bravais(1)=  7, is more symmetric
    than the real one, iholohedry=  5, obtained by taking into
    account the atomic positions. Start deforming the primitive vector set.
...


 symlatt : the Bravais lattice is hR (rhombohedral)
 symspgr : spgroup= 166  R-3 m   (=D3d^5)
 ingeo : angdeg(1:3)=   60.00000000   60.00000000   60.00000000
       Simple Lattice Grid

 invars1m : enter jdtset= 9
 invars1 : treat image number: 1

 symlatt : the Bravais lattice is cF (face-centered cubic)
  xred   is defined in input file
 ingeo : takes atomic coordinates from input array xred

 symlatt : the Bravais lattice is cF (face-centered cubic)

 symlatt : the Bravais lattice is cF (face-centered cubic)

--- !COMMENT
src_file: symbrav.F90
src_line: 201
message: |
    The Bravais lattice determined only from the primitive
    vectors, bravais(1)=  7, is more symmetric
    than the real one, iholohedry=  5, obtained by taking into
    account the atomic positions. Start deforming the primitive vector set.
...


 symlatt : the Bravais lattice is hR (rhombohedral)
 symspgr : spgroup= 166  R-3 m   (=D3d^5)
 ingeo : angdeg(1:3)=   60.00000000   60.00000000   60.00000000
       Simple Lattice Grid

 invars1m : enter jdtset= 10
 invars1 : treat image number: 1

 symlatt : the Bravais lattice is cF (face-centered cubic)
  xred   is defined in input file
 ingeo : takes atomic coordinates from input array xred

 symlatt : the Bravais lattice is cF (face-centered cubic)

 symlatt : the Bravais lattice is cF (face-centered cubic)

--- !COMMENT
src_file: symbrav.F90
src_line: 201
message: |
    The Bravais lattice determined only from the primitive
    vectors, bravais(1)=  7, is more symmetric
    than the real one, iholohedry=  5, obtained by taking into
    account the atomic positions. Start deforming the primitive vector set.
...


 symlatt : the Bravais lattice is hR (rhombohedral)
 symspgr : spgroup= 166  R-3 m   (=D3d^5)
 ingeo : angdeg(1:3)=   60.00000000   60.00000000   60.00000000
       Simple Lattice Grid

 invars1m : enter jdtset= 11
 invars1 : treat image number: 1

 symlatt : the Bravais lattice is cF (face-centered cubic)
  xred   is defined in input file
 ingeo : takes atomic coordinates from input array xred

 symlatt : the Bravais lattice is cF (face-centered cubic)

 symlatt : the Bravais lattice is cF (face-centered cubic)

--- !COMMENT
src_file: symbrav.F90
src_line: 201
message: |
    The Bravais lattice determined only from the primitive
    vectors, bravais(1)=  7, is more symmetric
    than the real one, iholohedry=  5, obtained by taking into
    account the atomic positions. Start deforming the primitive vector set.
...


 symlatt : the Bravais lattice is hR (rhombohedral)
 symspgr : spgroup= 166  R-3 m   (=D3d^5)
 ingeo : angdeg(1:3)=   60.00000000   60.00000000   60.00000000
       Simple Lattice Grid

 invars1m : enter jdtset= 12
 invars1 : treat image number: 1

 symlatt : the Bravais lattice is cF (face-centered cubic)
  xred   is defined in input file
 ingeo : takes atomic coordinates from input array xred

 symlatt : the Bravais lattice is cF (face-centered cubic)

 symlatt : the Bravais lattice is cF (face-centered cubic)

--- !COMMENT
src_file: symbrav.F90
src_line: 201
message: |
    The Bravais lattice determined only from the primitive
    vectors, bravais(1)=  7, is more symmetric
    than the real one, iholohedry=  5, obtained by taking into
    account the atomic positions. Start deforming the primitive vector set.
...


 symlatt : the Bravais lattice is hR (rhombohedral)
 symspgr : spgroup= 166  R-3 m   (=D3d^5)
 ingeo : angdeg(1:3)=   60.00000000   60.00000000   60.00000000
       Simple Lattice Grid

 invars1m : enter jdtset= 13
 invars1 : treat image number: 1

 symlatt : the Bravais lattice is cF (face-centered cubic)
  xred   is defined in input file
 ingeo : takes atomic coordinates from input array xred

 symlatt : the Bravais lattice is cF (face-centered cubic)

 symlatt : the Bravais lattice is cF (face-centered cubic)

--- !COMMENT
src_file: symbrav.F90
src_line: 201
message: |
    The Bravais lattice determined only from the primitive
    vectors, bravais(1)=  7, is more symmetric
    than the real one, iholohedry=  5, obtained by taking into
    account the atomic positions. Start deforming the primitive vector set.
...


 symlatt : the Bravais lattice is hR (rhombohedral)
 symspgr : spgroup= 166  R-3 m   (=D3d^5)
 ingeo : angdeg(1:3)=   60.00000000   60.00000000   60.00000000
       Simple Lattice Grid

 invars1m : enter jdtset= 14
 invars1 : treat image number: 1

 symlatt : the Bravais lattice is cF (face-centered cubic)
  xred   is defined in input file
 ingeo : takes atomic coordinates from input array xred

 symlatt : the Bravais lattice is cF (face-centered cubic)

 symlatt : the Bravais lattice is cF (face-centered cubic)

--- !COMMENT
src_file: symbrav.F90
src_line: 201
message: |
    The Bravais lattice determined only from the primitive
    vectors, bravais(1)=  7, is more symmetric
    than the real one, iholohedry=  5, obtained by taking into
    account the atomic positions. Start deforming the primitive vector set.
...


 symlatt : the Bravais lattice is hR (rhombohedral)
 symspgr : spgroup= 166  R-3 m   (=D3d^5)
 ingeo : angdeg(1:3)=   60.00000000   60.00000000   60.00000000
       Simple Lattice Grid

 invars1m : enter jdtset= 15
 invars1 : treat image number: 1

 symlatt : the Bravais lattice is cF (face-centered cubic)
  xred   is defined in input file
 ingeo : takes atomic coordinates from input array xred

 symlatt : the Bravais lattice is cF (face-centered cubic)

 symlatt : the Bravais lattice is cF (face-centered cubic)

--- !COMMENT
src_file: symbrav.F90
src_line: 201
message: |
    The Bravais lattice determined only from the primitive
    vectors, bravais(1)=  7, is more symmetric
    than the real one, iholohedry=  5, obtained by taking into
    account the atomic positions. Start deforming the primitive vector set.
...


 symlatt : the Bravais lattice is hR (rhombohedral)
 symspgr : spgroup= 166  R-3 m   (=D3d^5)
 ingeo : angdeg(1:3)=   60.00000000   60.00000000   60.00000000
       Simple Lattice Grid

 invars1m : enter jdtset= 16
 invars1 : treat image number: 1

 symlatt : the Bravais lattice is cF (face-centered cubic)
  xred   is defined in input file
 ingeo : takes atomic coordinates from input array xred

 symlatt : the Bravais lattice is cF (face-centered cubic)

 symlatt : the Bravais lattice is cF (face-centered cubic)

--- !COMMENT
src_file: symbrav.F90
src_line: 201
message: |
    The Bravais lattice determined only from the primitive
    vectors, bravais(1)=  7, is more symmetric
    than the real one, iholohedry=  5, obtained by taking into
    account the atomic positions. Start deforming the primitive vector set.
...


 symlatt : the Bravais lattice is hR (rhombohedral)
 symspgr : spgroup= 166  R-3 m   (=D3d^5)
 ingeo : angdeg(1:3)=   60.00000000   60.00000000   60.00000000
       Simple Lattice Grid

 invars1m : enter jdtset= 17
 invars1 : treat image number: 1

 symlatt : the Bravais lattice is cF (face-centered cubic)
  xred   is defined in input file
 ingeo : takes atomic coordinates from input array xred

 symlatt : the Bravais lattice is cF (face-centered cubic)

 symlatt : the Bravais lattice is cF (face-centered cubic)

--- !COMMENT
src_file: symbrav.F90
src_line: 201
message: |
    The Bravais lattice determined only from the primitive
    vectors, bravais(1)=  7, is more symmetric
    than the real one, iholohedry=  5, obtained by taking into
    account the atomic positions. Start deforming the primitive vector set.
...


 symlatt : the Bravais lattice is hR (rhombohedral)
 symspgr : spgroup= 166  R-3 m   (=D3d^5)
 ingeo : angdeg(1:3)=   60.00000000   60.00000000   60.00000000
       Simple Lattice Grid

 invars1m : enter jdtset= 18
 invars1 : treat image number: 1

 symlatt : the Bravais lattice is cF (face-centered cubic)
  xred   is defined in input file
 ingeo : takes atomic coordinates from input array xred

 symlatt : the Bravais lattice is cF (face-centered cubic)

 symlatt : the Bravais lattice is cF (face-centered cubic)

--- !COMMENT
src_file: symbrav.F90
src_line: 201
message: |
    The Bravais lattice determined only from the primitive
    vectors, bravais(1)=  7, is more symmetric
    than the real one, iholohedry=  5, obtained by taking into
    account the atomic positions. Start deforming the primitive vector set.
...


 symlatt : the Bravais lattice is hR (rhombohedral)
 symspgr : spgroup= 166  R-3 m   (=D3d^5)
 ingeo : angdeg(1:3)=   60.00000000   60.00000000   60.00000000
       Simple Lattice Grid

 invars1m : enter jdtset= 19
 invars1 : treat image number: 1

 symlatt : the Bravais lattice is cF (face-centered cubic)
  xred   is defined in input file
 ingeo : takes atomic coordinates from input array xred

 symlatt : the Bravais lattice is cF (face-centered cubic)

 symlatt : the Bravais lattice is cF (face-centered cubic)

--- !COMMENT
src_file: symbrav.F90
src_line: 201
message: |
    The Bravais lattice determined only from the primitive
    vectors, bravais(1)=  7, is more symmetric
    than the real one, iholohedry=  5, obtained by taking into
    account the atomic positions. Start deforming the primitive vector set.
...


 symlatt : the Bravais lattice is hR (rhombohedral)
 symspgr : spgroup= 166  R-3 m   (=D3d^5)
 ingeo : angdeg(1:3)=   60.00000000   60.00000000   60.00000000
       Simple Lattice Grid

 invars1m : enter jdtset= 20
 invars1 : treat image number: 1

 symlatt : the Bravais lattice is cF (face-centered cubic)
  xred   is defined in input file
 ingeo : takes atomic coordinates from input array xred

 symlatt : the Bravais lattice is cF (face-centered cubic)

 symlatt : the Bravais lattice is cF (face-centered cubic)

--- !COMMENT
src_file: symbrav.F90
src_line: 201
message: |
    The Bravais lattice determined only from the primitive
    vectors, bravais(1)=  7, is more symmetric
    than the real one, iholohedry=  5, obtained by taking into
    account the atomic positions. Start deforming the primitive vector set.
...


 symlatt : the Bravais lattice is hR (rhombohedral)
 symspgr : spgroup= 166  R-3 m   (=D3d^5)
 ingeo : angdeg(1:3)=   60.00000000   60.00000000   60.00000000
       Simple Lattice Grid

 invars1m : enter jdtset= 21
 invars1 : treat image number: 1

 symlatt : the Bravais lattice is cF (face-centered cubic)
  xred   is defined in input file
 ingeo : takes atomic coordinates from input array xred

 symlatt : the Bravais lattice is cF (face-centered cubic)

 symlatt : the Bravais lattice is cF (face-centered cubic)

--- !COMMENT
src_file: symbrav.F90
src_line: 201
message: |
    The Bravais lattice determined only from the primitive
    vectors, bravais(1)=  7, is more symmetric
    than the real one, iholohedry=  5, obtained by taking into
    account the atomic positions. Start deforming the primitive vector set.
...


 symlatt : the Bravais lattice is hR (rhombohedral)
 symspgr : spgroup= 166  R-3 m   (=D3d^5)
 ingeo : angdeg(1:3)=   60.00000000   60.00000000   60.00000000
       Simple Lattice Grid

 invars1m : enter jdtset= 22
 invars1 : treat image number: 1

 symlatt : the Bravais lattice is cF (face-centered cubic)
  xred   is defined in input file
 ingeo : takes atomic coordinates from input array xred

 symlatt : the Bravais lattice is cF (face-centered cubic)

 symlatt : the Bravais lattice is cF (face-centered cubic)

--- !COMMENT
src_file: symbrav.F90
src_line: 201
message: |
    The Bravais lattice determined only from the primitive
    vectors, bravais(1)=  7, is more symmetric
    than the real one, iholohedry=  5, obtained by taking into
    account the atomic positions. Start deforming the primitive vector set.
...


 symlatt : the Bravais lattice is hR (rhombohedral)
 symspgr : spgroup= 166  R-3 m   (=D3d^5)
 ingeo : angdeg(1:3)=   60.00000000   60.00000000   60.00000000
       Simple Lattice Grid

 invars1m : enter jdtset= 23
 invars1 : treat image number: 1

 symlatt : the Bravais lattice is cF (face-centered cubic)
  xred   is defined in input file
 ingeo : takes atomic coordinates from input array xred

 symlatt : the Bravais lattice is cF (face-centered cubic)

 symlatt : the Bravais lattice is cF (face-centered cubic)

--- !COMMENT
src_file: symbrav.F90
src_line: 201
message: |
    The Bravais lattice determined only from the primitive
    vectors, bravais(1)=  7, is more symmetric
    than the real one, iholohedry=  5, obtained by taking into
    account the atomic positions. Start deforming the primitive vector set.
...


 symlatt : the Bravais lattice is hR (rhombohedral)
 symspgr : spgroup= 166  R-3 m   (=D3d^5)
 ingeo : angdeg(1:3)=   60.00000000   60.00000000   60.00000000
       Simple Lattice Grid

 invars1m : enter jdtset= 24
 invars1 : treat image number: 1

 symlatt : the Bravais lattice is cF (face-centered cubic)
  xred   is defined in input file
 ingeo : takes atomic coordinates from input array xred

 symlatt : the Bravais lattice is cF (face-centered cubic)

 symlatt : the Bravais lattice is cF (face-centered cubic)

--- !COMMENT
src_file: symbrav.F90
src_line: 201
message: |
    The Bravais lattice determined only from the primitive
    vectors, bravais(1)=  7, is more symmetric
    than the real one, iholohedry=  5, obtained by taking into
    account the atomic positions. Start deforming the primitive vector set.
...


 symlatt : the Bravais lattice is hR (rhombohedral)
 symspgr : spgroup= 166  R-3 m   (=D3d^5)
 ingeo : angdeg(1:3)=   60.00000000   60.00000000   60.00000000
       Simple Lattice Grid

 invars1m : enter jdtset= 25
 invars1 : treat image number: 1

 symlatt : the Bravais lattice is cF (face-centered cubic)
  xred   is defined in input file
 ingeo : takes atomic coordinates from input array xred

 symlatt : the Bravais lattice is cF (face-centered cubic)

 symlatt : the Bravais lattice is cF (face-centered cubic)

--- !COMMENT
src_file: symbrav.F90
src_line: 201
message: |
    The Bravais lattice determined only from the primitive
    vectors, bravais(1)=  7, is more symmetric
    than the real one, iholohedry=  5, obtained by taking into
    account the atomic positions. Start deforming the primitive vector set.
...


 symlatt : the Bravais lattice is hR (rhombohedral)
 symspgr : spgroup= 166  R-3 m   (=D3d^5)
 ingeo : angdeg(1:3)=   60.00000000   60.00000000   60.00000000
       Simple Lattice Grid
 invars2: take the default value of fband=  1.25000000E-01
       Simple Lattice Grid
 
 invars2 : Printing the k point grid (values of kptns - max 100 of them)
 nkpt=    2000
     ikpt istwfk    wtk       --------- reduced coordinates ---------  --------- cartesian coordinates ---------
       1     1  5.000000E-04 -5.000000E-02 -1.000000E-01  0.000000E+00 -4.901651E-03  4.901651E-03 -1.470495E-02
       2     1  5.000000E-04 -1.000000E-01 -5.000000E-02  0.000000E+00  4.901651E-03 -4.901651E-03 -1.470495E-02
       3     1  5.000000E-04 -5.000000E-02 -5.000000E-02  5.000000E-02  4.901651E-03  4.901651E-03 -1.470495E-02
       4     1  5.000000E-04 -5.000000E-02 -2.000000E-01  0.000000E+00 -1.470495E-02  1.470495E-02 -2.450825E-02
       5     1  5.000000E-04 -1.000000E-01 -1.500000E-01  0.000000E+00 -4.901651E-03  4.901651E-03 -2.450825E-02
       6     1  5.000000E-04 -5.000000E-02 -1.500000E-01  5.000000E-02 -4.901651E-03  1.470495E-02 -2.450825E-02
       7     1  5.000000E-04 -1.500000E-01 -1.000000E-01  0.000000E+00  4.901651E-03 -4.901651E-03 -2.450825E-02
       8     1  5.000000E-04 -1.000000E-01 -1.000000E-01  5.000000E-02  4.901651E-03  4.901651E-03 -2.450825E-02
       9     1  5.000000E-04 -5.000000E-02 -1.000000E-01  1.000000E-01  4.901651E-03  1.470495E-02 -2.450825E-02
      10     1  5.000000E-04 -2.000000E-01 -5.000000E-02  0.000000E+00  1.470495E-02 -1.470495E-02 -2.450825E-02
      11     1  5.000000E-04 -1.500000E-01 -5.000000E-02  5.000000E-02  1.470495E-02 -4.901651E-03 -2.450825E-02
      12     1  5.000000E-04 -1.000000E-01 -5.000000E-02  1.000000E-01  1.470495E-02  4.901651E-03 -2.450825E-02
      13     1  5.000000E-04 -5.000000E-02 -5.000000E-02  1.500000E-01  1.470495E-02  1.470495E-02 -2.450825E-02
      14     1  5.000000E-04 -5.000000E-02 -3.000000E-01  0.000000E+00 -2.450825E-02  2.450825E-02 -3.431155E-02
      15     1  5.000000E-04 -1.000000E-01 -2.500000E-01  0.000000E+00 -1.470495E-02  1.470495E-02 -3.431155E-02
      16     1  5.000000E-04 -5.000000E-02 -2.500000E-01  5.000000E-02 -1.470495E-02  2.450825E-02 -3.431155E-02
      17     1  5.000000E-04 -1.500000E-01 -2.000000E-01  0.000000E+00 -4.901651E-03  4.901651E-03 -3.431155E-02
      18     1  5.000000E-04 -1.000000E-01 -2.000000E-01  5.000000E-02 -4.901651E-03  1.470495E-02 -3.431155E-02
      19     1  5.000000E-04 -5.000000E-02 -2.000000E-01  1.000000E-01 -4.901651E-03  2.450825E-02 -3.431155E-02
      20     1  5.000000E-04 -2.000000E-01 -1.500000E-01  0.000000E+00  4.901651E-03 -4.901651E-03 -3.431155E-02
      21     1  5.000000E-04 -1.500000E-01 -1.500000E-01  5.000000E-02  4.901651E-03  4.901651E-03 -3.431155E-02
      22     1  5.000000E-04 -1.000000E-01 -1.500000E-01  1.000000E-01  4.901651E-03  1.470495E-02 -3.431155E-02
      23     1  5.000000E-04 -5.000000E-02 -1.500000E-01  1.500000E-01  4.901651E-03  2.450825E-02 -3.431155E-02
      24     1  5.000000E-04 -2.500000E-01 -1.000000E-01  0.000000E+00  1.470495E-02 -1.470495E-02 -3.431155E-02
      25     1  5.000000E-04 -2.000000E-01 -1.000000E-01  5.000000E-02  1.470495E-02 -4.901651E-03 -3.431155E-02
      26     1  5.000000E-04 -1.500000E-01 -1.000000E-01  1.000000E-01  1.470495E-02  4.901651E-03 -3.431155E-02
      27     1  5.000000E-04 -1.000000E-01 -1.000000E-01  1.500000E-01  1.470495E-02  1.470495E-02 -3.431155E-02
      28     1  5.000000E-04 -5.000000E-02 -1.000000E-01  2.000000E-01  1.470495E-02  2.450825E-02 -3.431155E-02
      29     1  5.000000E-04 -3.000000E-01 -5.000000E-02  0.000000E+00  2.450825E-02 -2.450825E-02 -3.431155E-02
      30     1  5.000000E-04 -2.500000E-01 -5.000000E-02  5.000000E-02  2.450825E-02 -1.470495E-02 -3.431155E-02
      31     1  5.000000E-04 -2.000000E-01 -5.000000E-02  1.000000E-01  2.450825E-02 -4.901651E-03 -3.431155E-02
      32     1  5.000000E-04 -1.500000E-01 -5.000000E-02  1.500000E-01  2.450825E-02  4.901651E-03 -3.431155E-02
      33     1  5.000000E-04 -1.000000E-01 -5.000000E-02  2.000000E-01  2.450825E-02  1.470495E-02 -3.431155E-02
      34     1  5.000000E-04 -5.000000E-02 -5.000000E-02  2.500000E-01  2.450825E-02  2.450825E-02 -3.431155E-02
      35     1  5.000000E-04 -5.000000E-02 -4.000000E-01  0.000000E+00 -3.431155E-02  3.431155E-02 -4.411486E-02
      36     1  5.000000E-04 -1.000000E-01 -3.500000E-01  0.000000E+00 -2.450825E-02  2.450825E-02 -4.411486E-02
      37     1  5.000000E-04 -5.000000E-02 -3.500000E-01  5.000000E-02 -2.450825E-02  3.431155E-02 -4.411486E-02
      38     1  5.000000E-04 -1.500000E-01 -3.000000E-01  0.000000E+00 -1.470495E-02  1.470495E-02 -4.411486E-02
      39     1  5.000000E-04 -1.000000E-01 -3.000000E-01  5.000000E-02 -1.470495E-02  2.450825E-02 -4.411486E-02
      40     1  5.000000E-04 -5.000000E-02 -3.000000E-01  1.000000E-01 -1.470495E-02  3.431155E-02 -4.411486E-02
      41     1  5.000000E-04 -2.000000E-01 -2.500000E-01  0.000000E+00 -4.901651E-03  4.901651E-03 -4.411486E-02
      42     1  5.000000E-04 -1.500000E-01 -2.500000E-01  5.000000E-02 -4.901651E-03  1.470495E-02 -4.411486E-02
      43     1  5.000000E-04 -1.000000E-01 -2.500000E-01  1.000000E-01 -4.901651E-03  2.450825E-02 -4.411486E-02
      44     1  5.000000E-04 -5.000000E-02 -2.500000E-01  1.500000E-01 -4.901651E-03  3.431155E-02 -4.411486E-02
      45     1  5.000000E-04 -2.500000E-01 -2.000000E-01  0.000000E+00  4.901651E-03 -4.901651E-03 -4.411486E-02
      46     1  5.000000E-04 -2.000000E-01 -2.000000E-01  5.000000E-02  4.901651E-03  4.901651E-03 -4.411486E-02
      47     1  5.000000E-04 -1.500000E-01 -2.000000E-01  1.000000E-01  4.901651E-03  1.470495E-02 -4.411486E-02
      48     1  5.000000E-04 -1.000000E-01 -2.000000E-01  1.500000E-01  4.901651E-03  2.450825E-02 -4.411486E-02
      49     1  5.000000E-04 -5.000000E-02 -2.000000E-01  2.000000E-01  4.901651E-03  3.431155E-02 -4.411486E-02
      50     1  5.000000E-04 -3.000000E-01 -1.500000E-01  0.000000E+00  1.470495E-02 -1.470495E-02 -4.411486E-02
      51     1  5.000000E-04 -2.500000E-01 -1.500000E-01  5.000000E-02  1.470495E-02 -4.901651E-03 -4.411486E-02
      52     1  5.000000E-04 -2.000000E-01 -1.500000E-01  1.000000E-01  1.470495E-02  4.901651E-03 -4.411486E-02
      53     1  5.000000E-04 -1.500000E-01 -1.500000E-01  1.500000E-01  1.470495E-02  1.470495E-02 -4.411486E-02
      54     1  5.000000E-04 -1.000000E-01 -1.500000E-01  2.000000E-01  1.470495E-02  2.450825E-02 -4.411486E-02
      55     1  5.000000E-04 -5.000000E-02 -1.500000E-01  2.500000E-01  1.470495E-02  3.431155E-02 -4.411486E-02
      56     1  5.000000E-04 -3.500000E-01 -1.000000E-01  0.000000E+00  2.450825E-02 -2.450825E-02 -4.411486E-02
      57     1  5.000000E-04 -3.000000E-01 -1.000000E-01  5.000000E-02  2.450825E-02 -1.470495E-02 -4.411486E-02
      58     1  5.000000E-04 -2.500000E-01 -1.000000E-01  1.000000E-01  2.450825E-02 -4.901651E-03 -4.411486E-02
      59     1  5.000000E-04 -2.000000E-01 -1.000000E-01  1.500000E-01  2.450825E-02  4.901651E-03 -4.411486E-02
      60     1  5.000000E-04 -1.500000E-01 -1.000000E-01  2.000000E-01  2.450825E-02  1.470495E-02 -4.411486E-02
      61     1  5.000000E-04 -1.000000E-01 -1.000000E-01  2.500000E-01  2.450825E-02  2.450825E-02 -4.411486E-02
      62     1  5.000000E-04 -5.000000E-02 -1.000000E-01  3.000000E-01  2.450825E-02  3.431155E-02 -4.411486E-02
      63     1  5.000000E-04 -4.000000E-01 -5.000000E-02  0.000000E+00  3.431155E-02 -3.431155E-02 -4.411486E-02
      64     1  5.000000E-04 -3.500000E-01 -5.000000E-02  5.000000E-02  3.431155E-02 -2.450825E-02 -4.411486E-02
      65     1  5.000000E-04 -3.000000E-01 -5.000000E-02  1.000000E-01  3.431155E-02 -1.470495E-02 -4.411486E-02
      66     1  5.000000E-04 -2.500000E-01 -5.000000E-02  1.500000E-01  3.431155E-02 -4.901651E-03 -4.411486E-02
      67     1  5.000000E-04 -2.000000E-01 -5.000000E-02  2.000000E-01  3.431155E-02  4.901651E-03 -4.411486E-02
      68     1  5.000000E-04 -1.500000E-01 -5.000000E-02  2.500000E-01  3.431155E-02  1.470495E-02 -4.411486E-02
      69     1  5.000000E-04 -1.000000E-01 -5.000000E-02  3.000000E-01  3.431155E-02  2.450825E-02 -4.411486E-02
      70     1  5.000000E-04 -5.000000E-02 -5.000000E-02  3.500000E-01  3.431155E-02  3.431155E-02 -4.411486E-02
      71     1  5.000000E-04 -5.000000E-02  5.000000E-01  0.000000E+00  5.391816E-02 -5.391816E-02  4.411486E-02
      72     1  5.000000E-04 -1.000000E-01 -4.500000E-01  0.000000E+00 -3.431155E-02  3.431155E-02 -5.391816E-02
      73     1  5.000000E-04 -5.000000E-02 -4.500000E-01  5.000000E-02 -3.431155E-02  4.411486E-02 -5.391816E-02
      74     1  5.000000E-04 -1.500000E-01 -4.000000E-01  0.000000E+00 -2.450825E-02  2.450825E-02 -5.391816E-02
      75     1  5.000000E-04 -1.000000E-01 -4.000000E-01  5.000000E-02 -2.450825E-02  3.431155E-02 -5.391816E-02
      76     1  5.000000E-04 -5.000000E-02 -4.000000E-01  1.000000E-01 -2.450825E-02  4.411486E-02 -5.391816E-02
      77     1  5.000000E-04 -2.000000E-01 -3.500000E-01  0.000000E+00 -1.470495E-02  1.470495E-02 -5.391816E-02
      78     1  5.000000E-04 -1.500000E-01 -3.500000E-01  5.000000E-02 -1.470495E-02  2.450825E-02 -5.391816E-02
      79     1  5.000000E-04 -1.000000E-01 -3.500000E-01  1.000000E-01 -1.470495E-02  3.431155E-02 -5.391816E-02
      80     1  5.000000E-04 -5.000000E-02 -3.500000E-01  1.500000E-01 -1.470495E-02  4.411486E-02 -5.391816E-02
      81     1  5.000000E-04 -2.500000E-01 -3.000000E-01  0.000000E+00 -4.901651E-03  4.901651E-03 -5.391816E-02
      82     1  5.000000E-04 -2.000000E-01 -3.000000E-01  5.000000E-02 -4.901651E-03  1.470495E-02 -5.391816E-02
      83     1  5.000000E-04 -1.500000E-01 -3.000000E-01  1.000000E-01 -4.901651E-03  2.450825E-02 -5.391816E-02
      84     1  5.000000E-04 -1.000000E-01 -3.000000E-01  1.500000E-01 -4.901651E-03  3.431155E-02 -5.391816E-02
      85     1  5.000000E-04 -5.000000E-02 -3.000000E-01  2.000000E-01 -4.901651E-03  4.411486E-02 -5.391816E-02
      86     1  5.000000E-04 -3.000000E-01 -2.500000E-01  0.000000E+00  4.901651E-03 -4.901651E-03 -5.391816E-02
      87     1  5.000000E-04 -2.500000E-01 -2.500000E-01  5.000000E-02  4.901651E-03  4.901651E-03 -5.391816E-02
      88     1  5.000000E-04 -2.000000E-01 -2.500000E-01  1.000000E-01  4.901651E-03  1.470495E-02 -5.391816E-02
      89     1  5.000000E-04 -1.500000E-01 -2.500000E-01  1.500000E-01  4.901651E-03  2.450825E-02 -5.391816E-02
      90     1  5.000000E-04 -1.000000E-01 -2.500000E-01  2.000000E-01  4.901651E-03  3.431155E-02 -5.391816E-02
      91     1  5.000000E-04 -5.000000E-02 -2.500000E-01  2.500000E-01  4.901651E-03  4.411486E-02 -5.391816E-02
      92     1  5.000000E-04 -3.500000E-01 -2.000000E-01  0.000000E+00  1.470495E-02 -1.470495E-02 -5.391816E-02
      93     1  5.000000E-04 -3.000000E-01 -2.000000E-01  5.000000E-02  1.470495E-02 -4.901651E-03 -5.391816E-02
      94     1  5.000000E-04 -2.500000E-01 -2.000000E-01  1.000000E-01  1.470495E-02  4.901651E-03 -5.391816E-02
      95     1  5.000000E-04 -2.000000E-01 -2.000000E-01  1.500000E-01  1.470495E-02  1.470495E-02 -5.391816E-02
      96     1  5.000000E-04 -1.500000E-01 -2.000000E-01  2.000000E-01  1.470495E-02  2.450825E-02 -5.391816E-02
      97     1  5.000000E-04 -1.000000E-01 -2.000000E-01  2.500000E-01  1.470495E-02  3.431155E-02 -5.391816E-02
      98     1  5.000000E-04 -5.000000E-02 -2.000000E-01  3.000000E-01  1.470495E-02  4.411486E-02 -5.391816E-02
      99     1  5.000000E-04 -4.000000E-01 -1.500000E-01  0.000000E+00  2.450825E-02 -2.450825E-02 -5.391816E-02
     100     1  5.000000E-04 -3.500000E-01 -1.500000E-01  5.000000E-02  2.450825E-02 -1.470495E-02 -5.391816E-02
 
 invars2 : Printing the k point grid from kptrlatt, shifted with shiftk and qptn, in the full Brillouin zone.
   Maximum 100 of them. No use of symmetries
 nkpt_fullbz=    4000
     ikpt      --------------- reduced coordinates ---------------  --------- cartesian coordinates ---------
       1      -5.0000000000E-02 -1.0000000000E-01  0.0000000000E+00 -4.901651E-03  4.901651E-03 -1.470495E-02
       2      -1.0000000000E-01 -5.0000000000E-02  0.0000000000E+00  4.901651E-03 -4.901651E-03 -1.470495E-02
       3      -5.0000000000E-02 -5.0000000000E-02  5.0000000000E-02  4.901651E-03  4.901651E-03 -1.470495E-02
       4      -5.0000000000E-02 -2.0000000000E-01  0.0000000000E+00 -1.470495E-02  1.470495E-02 -2.450825E-02
       5      -1.0000000000E-01 -1.5000000000E-01  0.0000000000E+00 -4.901651E-03  4.901651E-03 -2.450825E-02
       6      -5.0000000000E-02 -1.5000000000E-01  5.0000000000E-02 -4.901651E-03  1.470495E-02 -2.450825E-02
       7      -1.5000000000E-01 -1.0000000000E-01  0.0000000000E+00  4.901651E-03 -4.901651E-03 -2.450825E-02
       8      -1.0000000000E-01 -1.0000000000E-01  5.0000000000E-02  4.901651E-03  4.901651E-03 -2.450825E-02
       9      -5.0000000000E-02 -1.0000000000E-01  1.0000000000E-01  4.901651E-03  1.470495E-02 -2.450825E-02
      10      -2.0000000000E-01 -5.0000000000E-02  0.0000000000E+00  1.470495E-02 -1.470495E-02 -2.450825E-02
      11      -1.5000000000E-01 -5.0000000000E-02  5.0000000000E-02  1.470495E-02 -4.901651E-03 -2.450825E-02
      12      -1.0000000000E-01 -5.0000000000E-02  1.0000000000E-01  1.470495E-02  4.901651E-03 -2.450825E-02
      13      -5.0000000000E-02 -5.0000000000E-02  1.5000000000E-01  1.470495E-02  1.470495E-02 -2.450825E-02
      14      -5.0000000000E-02 -3.0000000000E-01  0.0000000000E+00 -2.450825E-02  2.450825E-02 -3.431155E-02
      15      -1.0000000000E-01 -2.5000000000E-01  0.0000000000E+00 -1.470495E-02  1.470495E-02 -3.431155E-02
      16      -5.0000000000E-02 -2.5000000000E-01  5.0000000000E-02 -1.470495E-02  2.450825E-02 -3.431155E-02
      17      -1.5000000000E-01 -2.0000000000E-01  0.0000000000E+00 -4.901651E-03  4.901651E-03 -3.431155E-02
      18      -1.0000000000E-01 -2.0000000000E-01  5.0000000000E-02 -4.901651E-03  1.470495E-02 -3.431155E-02
      19      -5.0000000000E-02 -2.0000000000E-01  1.0000000000E-01 -4.901651E-03  2.450825E-02 -3.431155E-02
      20      -2.0000000000E-01 -1.5000000000E-01  0.0000000000E+00  4.901651E-03 -4.901651E-03 -3.431155E-02
      21      -1.5000000000E-01 -1.5000000000E-01  5.0000000000E-02  4.901651E-03  4.901651E-03 -3.431155E-02
      22      -1.0000000000E-01 -1.5000000000E-01  1.0000000000E-01  4.901651E-03  1.470495E-02 -3.431155E-02
      23      -5.0000000000E-02 -1.5000000000E-01  1.5000000000E-01  4.901651E-03  2.450825E-02 -3.431155E-02
      24      -2.5000000000E-01 -1.0000000000E-01  0.0000000000E+00  1.470495E-02 -1.470495E-02 -3.431155E-02
      25      -2.0000000000E-01 -1.0000000000E-01  5.0000000000E-02  1.470495E-02 -4.901651E-03 -3.431155E-02
      26      -1.5000000000E-01 -1.0000000000E-01  1.0000000000E-01  1.470495E-02  4.901651E-03 -3.431155E-02
      27      -1.0000000000E-01 -1.0000000000E-01  1.5000000000E-01  1.470495E-02  1.470495E-02 -3.431155E-02
      28      -5.0000000000E-02 -1.0000000000E-01  2.0000000000E-01  1.470495E-02  2.450825E-02 -3.431155E-02
      29      -3.0000000000E-01 -5.0000000000E-02  0.0000000000E+00  2.450825E-02 -2.450825E-02 -3.431155E-02
      30      -2.5000000000E-01 -5.0000000000E-02  5.0000000000E-02  2.450825E-02 -1.470495E-02 -3.431155E-02
      31      -2.0000000000E-01 -5.0000000000E-02  1.0000000000E-01  2.450825E-02 -4.901651E-03 -3.431155E-02
      32      -1.5000000000E-01 -5.0000000000E-02  1.5000000000E-01  2.450825E-02  4.901651E-03 -3.431155E-02
      33      -1.0000000000E-01 -5.0000000000E-02  2.0000000000E-01  2.450825E-02  1.470495E-02 -3.431155E-02
      34      -5.0000000000E-02 -5.0000000000E-02  2.5000000000E-01  2.450825E-02  2.450825E-02 -3.431155E-02
      35      -5.0000000000E-02 -4.0000000000E-01  0.0000000000E+00 -3.431155E-02  3.431155E-02 -4.411486E-02
      36      -1.0000000000E-01 -3.5000000000E-01  0.0000000000E+00 -2.450825E-02  2.450825E-02 -4.411486E-02
      37      -5.0000000000E-02 -3.5000000000E-01  5.0000000000E-02 -2.450825E-02  3.431155E-02 -4.411486E-02
      38      -1.5000000000E-01 -3.0000000000E-01  0.0000000000E+00 -1.470495E-02  1.470495E-02 -4.411486E-02
      39      -1.0000000000E-01 -3.0000000000E-01  5.0000000000E-02 -1.470495E-02  2.450825E-02 -4.411486E-02
      40      -5.0000000000E-02 -3.0000000000E-01  1.0000000000E-01 -1.470495E-02  3.431155E-02 -4.411486E-02
      41      -2.0000000000E-01 -2.5000000000E-01  0.0000000000E+00 -4.901651E-03  4.901651E-03 -4.411486E-02
      42      -1.5000000000E-01 -2.5000000000E-01  5.0000000000E-02 -4.901651E-03  1.470495E-02 -4.411486E-02
      43      -1.0000000000E-01 -2.5000000000E-01  1.0000000000E-01 -4.901651E-03  2.450825E-02 -4.411486E-02
      44      -5.0000000000E-02 -2.5000000000E-01  1.5000000000E-01 -4.901651E-03  3.431155E-02 -4.411486E-02
      45      -2.5000000000E-01 -2.0000000000E-01  0.0000000000E+00  4.901651E-03 -4.901651E-03 -4.411486E-02
      46      -2.0000000000E-01 -2.0000000000E-01  5.0000000000E-02  4.901651E-03  4.901651E-03 -4.411486E-02
      47      -1.5000000000E-01 -2.0000000000E-01  1.0000000000E-01  4.901651E-03  1.470495E-02 -4.411486E-02
      48      -1.0000000000E-01 -2.0000000000E-01  1.5000000000E-01  4.901651E-03  2.450825E-02 -4.411486E-02
      49      -5.0000000000E-02 -2.0000000000E-01  2.0000000000E-01  4.901651E-03  3.431155E-02 -4.411486E-02
      50      -3.0000000000E-01 -1.5000000000E-01  0.0000000000E+00  1.470495E-02 -1.470495E-02 -4.411486E-02
      51      -2.5000000000E-01 -1.5000000000E-01  5.0000000000E-02  1.470495E-02 -4.901651E-03 -4.411486E-02
      52      -2.0000000000E-01 -1.5000000000E-01  1.0000000000E-01  1.470495E-02  4.901651E-03 -4.411486E-02
      53      -1.5000000000E-01 -1.5000000000E-01  1.5000000000E-01  1.470495E-02  1.470495E-02 -4.411486E-02
      54      -1.0000000000E-01 -1.5000000000E-01  2.0000000000E-01  1.470495E-02  2.450825E-02 -4.411486E-02
      55      -5.0000000000E-02 -1.5000000000E-01  2.5000000000E-01  1.470495E-02  3.431155E-02 -4.411486E-02
      56      -3.5000000000E-01 -1.0000000000E-01  0.0000000000E+00  2.450825E-02 -2.450825E-02 -4.411486E-02
      57      -3.0000000000E-01 -1.0000000000E-01  5.0000000000E-02  2.450825E-02 -1.470495E-02 -4.411486E-02
      58      -2.5000000000E-01 -1.0000000000E-01  1.0000000000E-01  2.450825E-02 -4.901651E-03 -4.411486E-02
      59      -2.0000000000E-01 -1.0000000000E-01  1.5000000000E-01  2.450825E-02  4.901651E-03 -4.411486E-02
      60      -1.5000000000E-01 -1.0000000000E-01  2.0000000000E-01  2.450825E-02  1.470495E-02 -4.411486E-02
      61      -1.0000000000E-01 -1.0000000000E-01  2.5000000000E-01  2.450825E-02  2.450825E-02 -4.411486E-02
      62      -5.0000000000E-02 -1.0000000000E-01  3.0000000000E-01  2.450825E-02  3.431155E-02 -4.411486E-02
      63      -4.0000000000E-01 -5.0000000000E-02  0.0000000000E+00  3.431155E-02 -3.431155E-02 -4.411486E-02
      64      -3.5000000000E-01 -5.0000000000E-02  5.0000000000E-02  3.431155E-02 -2.450825E-02 -4.411486E-02
      65      -3.0000000000E-01 -5.0000000000E-02  1.0000000000E-01  3.431155E-02 -1.470495E-02 -4.411486E-02
      66      -2.5000000000E-01 -5.0000000000E-02  1.5000000000E-01  3.431155E-02 -4.901651E-03 -4.411486E-02
      67      -2.0000000000E-01 -5.0000000000E-02  2.0000000000E-01  3.431155E-02  4.901651E-03 -4.411486E-02
      68      -1.5000000000E-01 -5.0000000000E-02  2.5000000000E-01  3.431155E-02  1.470495E-02 -4.411486E-02
      69      -1.0000000000E-01 -5.0000000000E-02  3.0000000000E-01  3.431155E-02  2.450825E-02 -4.411486E-02
      70      -5.0000000000E-02 -5.0000000000E-02  3.5000000000E-01  3.431155E-02  3.431155E-02 -4.411486E-02
      71      -5.0000000000E-02  5.0000000000E-01  0.0000000000E+00  5.391816E-02 -5.391816E-02  4.411486E-02
      72      -1.0000000000E-01 -4.5000000000E-01  0.0000000000E+00 -3.431155E-02  3.431155E-02 -5.391816E-02
      73      -5.0000000000E-02 -4.5000000000E-01  5.0000000000E-02 -3.431155E-02  4.411486E-02 -5.391816E-02
      74      -1.5000000000E-01 -4.0000000000E-01  0.0000000000E+00 -2.450825E-02  2.450825E-02 -5.391816E-02
      75      -1.0000000000E-01 -4.0000000000E-01  5.0000000000E-02 -2.450825E-02  3.431155E-02 -5.391816E-02
      76      -5.0000000000E-02 -4.0000000000E-01  1.0000000000E-01 -2.450825E-02  4.411486E-02 -5.391816E-02
      77      -2.0000000000E-01 -3.5000000000E-01  0.0000000000E+00 -1.470495E-02  1.470495E-02 -5.391816E-02
      78      -1.5000000000E-01 -3.5000000000E-01  5.0000000000E-02 -1.470495E-02  2.450825E-02 -5.391816E-02
      79      -1.0000000000E-01 -3.5000000000E-01  1.0000000000E-01 -1.470495E-02  3.431155E-02 -5.391816E-02
      80      -5.0000000000E-02 -3.5000000000E-01  1.5000000000E-01 -1.470495E-02  4.411486E-02 -5.391816E-02
      81      -2.5000000000E-01 -3.0000000000E-01  0.0000000000E+00 -4.901651E-03  4.901651E-03 -5.391816E-02
      82      -2.0000000000E-01 -3.0000000000E-01  5.0000000000E-02 -4.901651E-03  1.470495E-02 -5.391816E-02
      83      -1.5000000000E-01 -3.0000000000E-01  1.0000000000E-01 -4.901651E-03  2.450825E-02 -5.391816E-02
      84      -1.0000000000E-01 -3.0000000000E-01  1.5000000000E-01 -4.901651E-03  3.431155E-02 -5.391816E-02
      85      -5.0000000000E-02 -3.0000000000E-01  2.0000000000E-01 -4.901651E-03  4.411486E-02 -5.391816E-02
      86      -3.0000000000E-01 -2.5000000000E-01  0.0000000000E+00  4.901651E-03 -4.901651E-03 -5.391816E-02
      87      -2.5000000000E-01 -2.5000000000E-01  5.0000000000E-02  4.901651E-03  4.901651E-03 -5.391816E-02
      88      -2.0000000000E-01 -2.5000000000E-01  1.0000000000E-01  4.901651E-03  1.470495E-02 -5.391816E-02
      89      -1.5000000000E-01 -2.5000000000E-01  1.5000000000E-01  4.901651E-03  2.450825E-02 -5.391816E-02
      90      -1.0000000000E-01 -2.5000000000E-01  2.0000000000E-01  4.901651E-03  3.431155E-02 -5.391816E-02
      91      -5.0000000000E-02 -2.5000000000E-01  2.5000000000E-01  4.901651E-03  4.411486E-02 -5.391816E-02
      92      -3.5000000000E-01 -2.0000000000E-01  0.0000000000E+00  1.470495E-02 -1.470495E-02 -5.391816E-02
      93      -3.0000000000E-01 -2.0000000000E-01  5.0000000000E-02  1.470495E-02 -4.901651E-03 -5.391816E-02
      94      -2.5000000000E-01 -2.0000000000E-01  1.0000000000E-01  1.470495E-02  4.901651E-03 -5.391816E-02
      95      -2.0000000000E-01 -2.0000000000E-01  1.5000000000E-01  1.470495E-02  1.470495E-02 -5.391816E-02
      96      -1.5000000000E-01 -2.0000000000E-01  2.0000000000E-01  1.470495E-02  2.450825E-02 -5.391816E-02
      97      -1.0000000000E-01 -2.0000000000E-01  2.5000000000E-01  1.470495E-02  3.431155E-02 -5.391816E-02
      98      -5.0000000000E-02 -2.0000000000E-01  3.0000000000E-01  1.470495E-02  4.411486E-02 -5.391816E-02
      99      -4.0000000000E-01 -1.5000000000E-01  0.0000000000E+00  2.450825E-02 -2.450825E-02 -5.391816E-02
     100      -3.5000000000E-01 -1.5000000000E-01  5.0000000000E-02  2.450825E-02 -1.470495E-02 -5.391816E-02
 

  chkneu : enter, dtset%nelect=   8.0000000000000000     
  occopt,dtset%nsppol,dtset%nspden=           1           1           1
  maxocc,nocc,occlast=   2.0000000000000000                4   2.0000000000000000     
 chkneu : initialized the occupation numbers for occopt=    1, spin-unpolarized or antiferromagnetic case :
  2.00  2.00  2.00  2.00  0.00
 invars2: take the default value of fband=  1.25000000E-01
       Simple Lattice Grid
 
 invars2 : Printing the k point grid (values of kptns - max 100 of them)
 nkpt=    2000
     ikpt istwfk    wtk       --------- reduced coordinates ---------  --------- cartesian coordinates ---------
       1     1  5.000000E-04 -5.000000E-02 -1.000000E-01  0.000000E+00 -4.901651E-03  4.901651E-03 -1.470495E-02
       2     1  5.000000E-04 -1.000000E-01 -5.000000E-02  0.000000E+00  4.901651E-03 -4.901651E-03 -1.470495E-02
       3     1  5.000000E-04 -5.000000E-02 -5.000000E-02  5.000000E-02  4.901651E-03  4.901651E-03 -1.470495E-02
       4     1  5.000000E-04 -5.000000E-02 -2.000000E-01  0.000000E+00 -1.470495E-02  1.470495E-02 -2.450825E-02
       5     1  5.000000E-04 -1.000000E-01 -1.500000E-01  0.000000E+00 -4.901651E-03  4.901651E-03 -2.450825E-02
       6     1  5.000000E-04 -5.000000E-02 -1.500000E-01  5.000000E-02 -4.901651E-03  1.470495E-02 -2.450825E-02
       7     1  5.000000E-04 -1.500000E-01 -1.000000E-01  0.000000E+00  4.901651E-03 -4.901651E-03 -2.450825E-02
       8     1  5.000000E-04 -1.000000E-01 -1.000000E-01  5.000000E-02  4.901651E-03  4.901651E-03 -2.450825E-02
       9     1  5.000000E-04 -5.000000E-02 -1.000000E-01  1.000000E-01  4.901651E-03  1.470495E-02 -2.450825E-02
      10     1  5.000000E-04 -2.000000E-01 -5.000000E-02  0.000000E+00  1.470495E-02 -1.470495E-02 -2.450825E-02
      11     1  5.000000E-04 -1.500000E-01 -5.000000E-02  5.000000E-02  1.470495E-02 -4.901651E-03 -2.450825E-02
      12     1  5.000000E-04 -1.000000E-01 -5.000000E-02  1.000000E-01  1.470495E-02  4.901651E-03 -2.450825E-02
      13     1  5.000000E-04 -5.000000E-02 -5.000000E-02  1.500000E-01  1.470495E-02  1.470495E-02 -2.450825E-02
      14     1  5.000000E-04 -5.000000E-02 -3.000000E-01  0.000000E+00 -2.450825E-02  2.450825E-02 -3.431155E-02
      15     1  5.000000E-04 -1.000000E-01 -2.500000E-01  0.000000E+00 -1.470495E-02  1.470495E-02 -3.431155E-02
      16     1  5.000000E-04 -5.000000E-02 -2.500000E-01  5.000000E-02 -1.470495E-02  2.450825E-02 -3.431155E-02
      17     1  5.000000E-04 -1.500000E-01 -2.000000E-01  0.000000E+00 -4.901651E-03  4.901651E-03 -3.431155E-02
      18     1  5.000000E-04 -1.000000E-01 -2.000000E-01  5.000000E-02 -4.901651E-03  1.470495E-02 -3.431155E-02
      19     1  5.000000E-04 -5.000000E-02 -2.000000E-01  1.000000E-01 -4.901651E-03  2.450825E-02 -3.431155E-02
      20     1  5.000000E-04 -2.000000E-01 -1.500000E-01  0.000000E+00  4.901651E-03 -4.901651E-03 -3.431155E-02
      21     1  5.000000E-04 -1.500000E-01 -1.500000E-01  5.000000E-02  4.901651E-03  4.901651E-03 -3.431155E-02
      22     1  5.000000E-04 -1.000000E-01 -1.500000E-01  1.000000E-01  4.901651E-03  1.470495E-02 -3.431155E-02
      23     1  5.000000E-04 -5.000000E-02 -1.500000E-01  1.500000E-01  4.901651E-03  2.450825E-02 -3.431155E-02
      24     1  5.000000E-04 -2.500000E-01 -1.000000E-01  0.000000E+00  1.470495E-02 -1.470495E-02 -3.431155E-02
      25     1  5.000000E-04 -2.000000E-01 -1.000000E-01  5.000000E-02  1.470495E-02 -4.901651E-03 -3.431155E-02
      26     1  5.000000E-04 -1.500000E-01 -1.000000E-01  1.000000E-01  1.470495E-02  4.901651E-03 -3.431155E-02
      27     1  5.000000E-04 -1.000000E-01 -1.000000E-01  1.500000E-01  1.470495E-02  1.470495E-02 -3.431155E-02
      28     1  5.000000E-04 -5.000000E-02 -1.000000E-01  2.000000E-01  1.470495E-02  2.450825E-02 -3.431155E-02
      29     1  5.000000E-04 -3.000000E-01 -5.000000E-02  0.000000E+00  2.450825E-02 -2.450825E-02 -3.431155E-02
      30     1  5.000000E-04 -2.500000E-01 -5.000000E-02  5.000000E-02  2.450825E-02 -1.470495E-02 -3.431155E-02
      31     1  5.000000E-04 -2.000000E-01 -5.000000E-02  1.000000E-01  2.450825E-02 -4.901651E-03 -3.431155E-02
      32     1  5.000000E-04 -1.500000E-01 -5.000000E-02  1.500000E-01  2.450825E-02  4.901651E-03 -3.431155E-02
      33     1  5.000000E-04 -1.000000E-01 -5.000000E-02  2.000000E-01  2.450825E-02  1.470495E-02 -3.431155E-02
      34     1  5.000000E-04 -5.000000E-02 -5.000000E-02  2.500000E-01  2.450825E-02  2.450825E-02 -3.431155E-02
      35     1  5.000000E-04 -5.000000E-02 -4.000000E-01  0.000000E+00 -3.431155E-02  3.431155E-02 -4.411486E-02
      36     1  5.000000E-04 -1.000000E-01 -3.500000E-01  0.000000E+00 -2.450825E-02  2.450825E-02 -4.411486E-02
      37     1  5.000000E-04 -5.000000E-02 -3.500000E-01  5.000000E-02 -2.450825E-02  3.431155E-02 -4.411486E-02
      38     1  5.000000E-04 -1.500000E-01 -3.000000E-01  0.000000E+00 -1.470495E-02  1.470495E-02 -4.411486E-02
      39     1  5.000000E-04 -1.000000E-01 -3.000000E-01  5.000000E-02 -1.470495E-02  2.450825E-02 -4.411486E-02
      40     1  5.000000E-04 -5.000000E-02 -3.000000E-01  1.000000E-01 -1.470495E-02  3.431155E-02 -4.411486E-02
      41     1  5.000000E-04 -2.000000E-01 -2.500000E-01  0.000000E+00 -4.901651E-03  4.901651E-03 -4.411486E-02
      42     1  5.000000E-04 -1.500000E-01 -2.500000E-01  5.000000E-02 -4.901651E-03  1.470495E-02 -4.411486E-02
      43     1  5.000000E-04 -1.000000E-01 -2.500000E-01  1.000000E-01 -4.901651E-03  2.450825E-02 -4.411486E-02
      44     1  5.000000E-04 -5.000000E-02 -2.500000E-01  1.500000E-01 -4.901651E-03  3.431155E-02 -4.411486E-02
      45     1  5.000000E-04 -2.500000E-01 -2.000000E-01  0.000000E+00  4.901651E-03 -4.901651E-03 -4.411486E-02
      46     1  5.000000E-04 -2.000000E-01 -2.000000E-01  5.000000E-02  4.901651E-03  4.901651E-03 -4.411486E-02
      47     1  5.000000E-04 -1.500000E-01 -2.000000E-01  1.000000E-01  4.901651E-03  1.470495E-02 -4.411486E-02
      48     1  5.000000E-04 -1.000000E-01 -2.000000E-01  1.500000E-01  4.901651E-03  2.450825E-02 -4.411486E-02
      49     1  5.000000E-04 -5.000000E-02 -2.000000E-01  2.000000E-01  4.901651E-03  3.431155E-02 -4.411486E-02
      50     1  5.000000E-04 -3.000000E-01 -1.500000E-01  0.000000E+00  1.470495E-02 -1.470495E-02 -4.411486E-02
      51     1  5.000000E-04 -2.500000E-01 -1.500000E-01  5.000000E-02  1.470495E-02 -4.901651E-03 -4.411486E-02
      52     1  5.000000E-04 -2.000000E-01 -1.500000E-01  1.000000E-01  1.470495E-02  4.901651E-03 -4.411486E-02
      53     1  5.000000E-04 -1.500000E-01 -1.500000E-01  1.500000E-01  1.470495E-02  1.470495E-02 -4.411486E-02
      54     1  5.000000E-04 -1.000000E-01 -1.500000E-01  2.000000E-01  1.470495E-02  2.450825E-02 -4.411486E-02
      55     1  5.000000E-04 -5.000000E-02 -1.500000E-01  2.500000E-01  1.470495E-02  3.431155E-02 -4.411486E-02
      56     1  5.000000E-04 -3.500000E-01 -1.000000E-01  0.000000E+00  2.450825E-02 -2.450825E-02 -4.411486E-02
      57     1  5.000000E-04 -3.000000E-01 -1.000000E-01  5.000000E-02  2.450825E-02 -1.470495E-02 -4.411486E-02
      58     1  5.000000E-04 -2.500000E-01 -1.000000E-01  1.000000E-01  2.450825E-02 -4.901651E-03 -4.411486E-02
      59     1  5.000000E-04 -2.000000E-01 -1.000000E-01  1.500000E-01  2.450825E-02  4.901651E-03 -4.411486E-02
      60     1  5.000000E-04 -1.500000E-01 -1.000000E-01  2.000000E-01  2.450825E-02  1.470495E-02 -4.411486E-02
      61     1  5.000000E-04 -1.000000E-01 -1.000000E-01  2.500000E-01  2.450825E-02  2.450825E-02 -4.411486E-02
      62     1  5.000000E-04 -5.000000E-02 -1.000000E-01  3.000000E-01  2.450825E-02  3.431155E-02 -4.411486E-02
      63     1  5.000000E-04 -4.000000E-01 -5.000000E-02  0.000000E+00  3.431155E-02 -3.431155E-02 -4.411486E-02
      64     1  5.000000E-04 -3.500000E-01 -5.000000E-02  5.000000E-02  3.431155E-02 -2.450825E-02 -4.411486E-02
      65     1  5.000000E-04 -3.000000E-01 -5.000000E-02  1.000000E-01  3.431155E-02 -1.470495E-02 -4.411486E-02
      66     1  5.000000E-04 -2.500000E-01 -5.000000E-02  1.500000E-01  3.431155E-02 -4.901651E-03 -4.411486E-02
      67     1  5.000000E-04 -2.000000E-01 -5.000000E-02  2.000000E-01  3.431155E-02  4.901651E-03 -4.411486E-02
      68     1  5.000000E-04 -1.500000E-01 -5.000000E-02  2.500000E-01  3.431155E-02  1.470495E-02 -4.411486E-02
      69     1  5.000000E-04 -1.000000E-01 -5.000000E-02  3.000000E-01  3.431155E-02  2.450825E-02 -4.411486E-02
      70     1  5.000000E-04 -5.000000E-02 -5.000000E-02  3.500000E-01  3.431155E-02  3.431155E-02 -4.411486E-02
      71     1  5.000000E-04 -5.000000E-02  5.000000E-01  0.000000E+00  5.391816E-02 -5.391816E-02  4.411486E-02
      72     1  5.000000E-04 -1.000000E-01 -4.500000E-01  0.000000E+00 -3.431155E-02  3.431155E-02 -5.391816E-02
      73     1  5.000000E-04 -5.000000E-02 -4.500000E-01  5.000000E-02 -3.431155E-02  4.411486E-02 -5.391816E-02
      74     1  5.000000E-04 -1.500000E-01 -4.000000E-01  0.000000E+00 -2.450825E-02  2.450825E-02 -5.391816E-02
      75     1  5.000000E-04 -1.000000E-01 -4.000000E-01  5.000000E-02 -2.450825E-02  3.431155E-02 -5.391816E-02
      76     1  5.000000E-04 -5.000000E-02 -4.000000E-01  1.000000E-01 -2.450825E-02  4.411486E-02 -5.391816E-02
      77     1  5.000000E-04 -2.000000E-01 -3.500000E-01  0.000000E+00 -1.470495E-02  1.470495E-02 -5.391816E-02
      78     1  5.000000E-04 -1.500000E-01 -3.500000E-01  5.000000E-02 -1.470495E-02  2.450825E-02 -5.391816E-02
      79     1  5.000000E-04 -1.000000E-01 -3.500000E-01  1.000000E-01 -1.470495E-02  3.431155E-02 -5.391816E-02
      80     1  5.000000E-04 -5.000000E-02 -3.500000E-01  1.500000E-01 -1.470495E-02  4.411486E-02 -5.391816E-02
      81     1  5.000000E-04 -2.500000E-01 -3.000000E-01  0.000000E+00 -4.901651E-03  4.901651E-03 -5.391816E-02
      82     1  5.000000E-04 -2.000000E-01 -3.000000E-01  5.000000E-02 -4.901651E-03  1.470495E-02 -5.391816E-02
      83     1  5.000000E-04 -1.500000E-01 -3.000000E-01  1.000000E-01 -4.901651E-03  2.450825E-02 -5.391816E-02
      84     1  5.000000E-04 -1.000000E-01 -3.000000E-01  1.500000E-01 -4.901651E-03  3.431155E-02 -5.391816E-02
      85     1  5.000000E-04 -5.000000E-02 -3.000000E-01  2.000000E-01 -4.901651E-03  4.411486E-02 -5.391816E-02
      86     1  5.000000E-04 -3.000000E-01 -2.500000E-01  0.000000E+00  4.901651E-03 -4.901651E-03 -5.391816E-02
      87     1  5.000000E-04 -2.500000E-01 -2.500000E-01  5.000000E-02  4.901651E-03  4.901651E-03 -5.391816E-02
      88     1  5.000000E-04 -2.000000E-01 -2.500000E-01  1.000000E-01  4.901651E-03  1.470495E-02 -5.391816E-02
      89     1  5.000000E-04 -1.500000E-01 -2.500000E-01  1.500000E-01  4.901651E-03  2.450825E-02 -5.391816E-02
      90     1  5.000000E-04 -1.000000E-01 -2.500000E-01  2.000000E-01  4.901651E-03  3.431155E-02 -5.391816E-02
      91     1  5.000000E-04 -5.000000E-02 -2.500000E-01  2.500000E-01  4.901651E-03  4.411486E-02 -5.391816E-02
      92     1  5.000000E-04 -3.500000E-01 -2.000000E-01  0.000000E+00  1.470495E-02 -1.470495E-02 -5.391816E-02
      93     1  5.000000E-04 -3.000000E-01 -2.000000E-01  5.000000E-02  1.470495E-02 -4.901651E-03 -5.391816E-02
      94     1  5.000000E-04 -2.500000E-01 -2.000000E-01  1.000000E-01  1.470495E-02  4.901651E-03 -5.391816E-02
      95     1  5.000000E-04 -2.000000E-01 -2.000000E-01  1.500000E-01  1.470495E-02  1.470495E-02 -5.391816E-02
      96     1  5.000000E-04 -1.500000E-01 -2.000000E-01  2.000000E-01  1.470495E-02  2.450825E-02 -5.391816E-02
      97     1  5.000000E-04 -1.000000E-01 -2.000000E-01  2.500000E-01  1.470495E-02  3.431155E-02 -5.391816E-02
      98     1  5.000000E-04 -5.000000E-02 -2.000000E-01  3.000000E-01  1.470495E-02  4.411486E-02 -5.391816E-02
      99     1  5.000000E-04 -4.000000E-01 -1.500000E-01  0.000000E+00  2.450825E-02 -2.450825E-02 -5.391816E-02
     100     1  5.000000E-04 -3.500000E-01 -1.500000E-01  5.000000E-02  2.450825E-02 -1.470495E-02 -5.391816E-02
 
 invars2 : Printing the k point grid from kptrlatt, shifted with shiftk and qptn, in the full Brillouin zone.
   Maximum 100 of them. No use of symmetries
 nkpt_fullbz=    4000
     ikpt      --------------- reduced coordinates ---------------  --------- cartesian coordinates ---------
       1      -5.0000000000E-02 -1.0000000000E-01  0.0000000000E+00 -4.901651E-03  4.901651E-03 -1.470495E-02
       2      -1.0000000000E-01 -5.0000000000E-02  0.0000000000E+00  4.901651E-03 -4.901651E-03 -1.470495E-02
       3      -5.0000000000E-02 -5.0000000000E-02  5.0000000000E-02  4.901651E-03  4.901651E-03 -1.470495E-02
       4      -5.0000000000E-02 -2.0000000000E-01  0.0000000000E+00 -1.470495E-02  1.470495E-02 -2.450825E-02
       5      -1.0000000000E-01 -1.5000000000E-01  0.0000000000E+00 -4.901651E-03  4.901651E-03 -2.450825E-02
       6      -5.0000000000E-02 -1.5000000000E-01  5.0000000000E-02 -4.901651E-03  1.470495E-02 -2.450825E-02
       7      -1.5000000000E-01 -1.0000000000E-01  0.0000000000E+00  4.901651E-03 -4.901651E-03 -2.450825E-02
       8      -1.0000000000E-01 -1.0000000000E-01  5.0000000000E-02  4.901651E-03  4.901651E-03 -2.450825E-02
       9      -5.0000000000E-02 -1.0000000000E-01  1.0000000000E-01  4.901651E-03  1.470495E-02 -2.450825E-02
      10      -2.0000000000E-01 -5.0000000000E-02  0.0000000000E+00  1.470495E-02 -1.470495E-02 -2.450825E-02
      11      -1.5000000000E-01 -5.0000000000E-02  5.0000000000E-02  1.470495E-02 -4.901651E-03 -2.450825E-02
      12      -1.0000000000E-01 -5.0000000000E-02  1.0000000000E-01  1.470495E-02  4.901651E-03 -2.450825E-02
      13      -5.0000000000E-02 -5.0000000000E-02  1.5000000000E-01  1.470495E-02  1.470495E-02 -2.450825E-02
      14      -5.0000000000E-02 -3.0000000000E-01  0.0000000000E+00 -2.450825E-02  2.450825E-02 -3.431155E-02
      15      -1.0000000000E-01 -2.5000000000E-01  0.0000000000E+00 -1.470495E-02  1.470495E-02 -3.431155E-02
      16      -5.0000000000E-02 -2.5000000000E-01  5.0000000000E-02 -1.470495E-02  2.450825E-02 -3.431155E-02
      17      -1.5000000000E-01 -2.0000000000E-01  0.0000000000E+00 -4.901651E-03  4.901651E-03 -3.431155E-02
      18      -1.0000000000E-01 -2.0000000000E-01  5.0000000000E-02 -4.901651E-03  1.470495E-02 -3.431155E-02
      19      -5.0000000000E-02 -2.0000000000E-01  1.0000000000E-01 -4.901651E-03  2.450825E-02 -3.431155E-02
      20      -2.0000000000E-01 -1.5000000000E-01  0.0000000000E+00  4.901651E-03 -4.901651E-03 -3.431155E-02
      21      -1.5000000000E-01 -1.5000000000E-01  5.0000000000E-02  4.901651E-03  4.901651E-03 -3.431155E-02
      22      -1.0000000000E-01 -1.5000000000E-01  1.0000000000E-01  4.901651E-03  1.470495E-02 -3.431155E-02
      23      -5.0000000000E-02 -1.5000000000E-01  1.5000000000E-01  4.901651E-03  2.450825E-02 -3.431155E-02
      24      -2.5000000000E-01 -1.0000000000E-01  0.0000000000E+00  1.470495E-02 -1.470495E-02 -3.431155E-02
      25      -2.0000000000E-01 -1.0000000000E-01  5.0000000000E-02  1.470495E-02 -4.901651E-03 -3.431155E-02
      26      -1.5000000000E-01 -1.0000000000E-01  1.0000000000E-01  1.470495E-02  4.901651E-03 -3.431155E-02
      27      -1.0000000000E-01 -1.0000000000E-01  1.5000000000E-01  1.470495E-02  1.470495E-02 -3.431155E-02
      28      -5.0000000000E-02 -1.0000000000E-01  2.0000000000E-01  1.470495E-02  2.450825E-02 -3.431155E-02
      29      -3.0000000000E-01 -5.0000000000E-02  0.0000000000E+00  2.450825E-02 -2.450825E-02 -3.431155E-02
      30      -2.5000000000E-01 -5.0000000000E-02  5.0000000000E-02  2.450825E-02 -1.470495E-02 -3.431155E-02
      31      -2.0000000000E-01 -5.0000000000E-02  1.0000000000E-01  2.450825E-02 -4.901651E-03 -3.431155E-02
      32      -1.5000000000E-01 -5.0000000000E-02  1.5000000000E-01  2.450825E-02  4.901651E-03 -3.431155E-02
      33      -1.0000000000E-01 -5.0000000000E-02  2.0000000000E-01  2.450825E-02  1.470495E-02 -3.431155E-02
      34      -5.0000000000E-02 -5.0000000000E-02  2.5000000000E-01  2.450825E-02  2.450825E-02 -3.431155E-02
      35      -5.0000000000E-02 -4.0000000000E-01  0.0000000000E+00 -3.431155E-02  3.431155E-02 -4.411486E-02
      36      -1.0000000000E-01 -3.5000000000E-01  0.0000000000E+00 -2.450825E-02  2.450825E-02 -4.411486E-02
      37      -5.0000000000E-02 -3.5000000000E-01  5.0000000000E-02 -2.450825E-02  3.431155E-02 -4.411486E-02
      38      -1.5000000000E-01 -3.0000000000E-01  0.0000000000E+00 -1.470495E-02  1.470495E-02 -4.411486E-02
      39      -1.0000000000E-01 -3.0000000000E-01  5.0000000000E-02 -1.470495E-02  2.450825E-02 -4.411486E-02
      40      -5.0000000000E-02 -3.0000000000E-01  1.0000000000E-01 -1.470495E-02  3.431155E-02 -4.411486E-02
      41      -2.0000000000E-01 -2.5000000000E-01  0.0000000000E+00 -4.901651E-03  4.901651E-03 -4.411486E-02
      42      -1.5000000000E-01 -2.5000000000E-01  5.0000000000E-02 -4.901651E-03  1.470495E-02 -4.411486E-02
      43      -1.0000000000E-01 -2.5000000000E-01  1.0000000000E-01 -4.901651E-03  2.450825E-02 -4.411486E-02
      44      -5.0000000000E-02 -2.5000000000E-01  1.5000000000E-01 -4.901651E-03  3.431155E-02 -4.411486E-02
      45      -2.5000000000E-01 -2.0000000000E-01  0.0000000000E+00  4.901651E-03 -4.901651E-03 -4.411486E-02
      46      -2.0000000000E-01 -2.0000000000E-01  5.0000000000E-02  4.901651E-03  4.901651E-03 -4.411486E-02
      47      -1.5000000000E-01 -2.0000000000E-01  1.0000000000E-01  4.901651E-03  1.470495E-02 -4.411486E-02
      48      -1.0000000000E-01 -2.0000000000E-01  1.5000000000E-01  4.901651E-03  2.450825E-02 -4.411486E-02
      49      -5.0000000000E-02 -2.0000000000E-01  2.0000000000E-01  4.901651E-03  3.431155E-02 -4.411486E-02
      50      -3.0000000000E-01 -1.5000000000E-01  0.0000000000E+00  1.470495E-02 -1.470495E-02 -4.411486E-02
      51      -2.5000000000E-01 -1.5000000000E-01  5.0000000000E-02  1.470495E-02 -4.901651E-03 -4.411486E-02
      52      -2.0000000000E-01 -1.5000000000E-01  1.0000000000E-01  1.470495E-02  4.901651E-03 -4.411486E-02
      53      -1.5000000000E-01 -1.5000000000E-01  1.5000000000E-01  1.470495E-02  1.470495E-02 -4.411486E-02
      54      -1.0000000000E-01 -1.5000000000E-01  2.0000000000E-01  1.470495E-02  2.450825E-02 -4.411486E-02
      55      -5.0000000000E-02 -1.5000000000E-01  2.5000000000E-01  1.470495E-02  3.431155E-02 -4.411486E-02
      56      -3.5000000000E-01 -1.0000000000E-01  0.0000000000E+00  2.450825E-02 -2.450825E-02 -4.411486E-02
      57      -3.0000000000E-01 -1.0000000000E-01  5.0000000000E-02  2.450825E-02 -1.470495E-02 -4.411486E-02
      58      -2.5000000000E-01 -1.0000000000E-01  1.0000000000E-01  2.450825E-02 -4.901651E-03 -4.411486E-02
      59      -2.0000000000E-01 -1.0000000000E-01  1.5000000000E-01  2.450825E-02  4.901651E-03 -4.411486E-02
      60      -1.5000000000E-01 -1.0000000000E-01  2.0000000000E-01  2.450825E-02  1.470495E-02 -4.411486E-02
      61      -1.0000000000E-01 -1.0000000000E-01  2.5000000000E-01  2.450825E-02  2.450825E-02 -4.411486E-02
      62      -5.0000000000E-02 -1.0000000000E-01  3.0000000000E-01  2.450825E-02  3.431155E-02 -4.411486E-02
      63      -4.0000000000E-01 -5.0000000000E-02  0.0000000000E+00  3.431155E-02 -3.431155E-02 -4.411486E-02
      64      -3.5000000000E-01 -5.0000000000E-02  5.0000000000E-02  3.431155E-02 -2.450825E-02 -4.411486E-02
      65      -3.0000000000E-01 -5.0000000000E-02  1.0000000000E-01  3.431155E-02 -1.470495E-02 -4.411486E-02
      66      -2.5000000000E-01 -5.0000000000E-02  1.5000000000E-01  3.431155E-02 -4.901651E-03 -4.411486E-02
      67      -2.0000000000E-01 -5.0000000000E-02  2.0000000000E-01  3.431155E-02  4.901651E-03 -4.411486E-02
      68      -1.5000000000E-01 -5.0000000000E-02  2.5000000000E-01  3.431155E-02  1.470495E-02 -4.411486E-02
      69      -1.0000000000E-01 -5.0000000000E-02  3.0000000000E-01  3.431155E-02  2.450825E-02 -4.411486E-02
      70      -5.0000000000E-02 -5.0000000000E-02  3.5000000000E-01  3.431155E-02  3.431155E-02 -4.411486E-02
      71      -5.0000000000E-02  5.0000000000E-01  0.0000000000E+00  5.391816E-02 -5.391816E-02  4.411486E-02
      72      -1.0000000000E-01 -4.5000000000E-01  0.0000000000E+00 -3.431155E-02  3.431155E-02 -5.391816E-02
      73      -5.0000000000E-02 -4.5000000000E-01  5.0000000000E-02 -3.431155E-02  4.411486E-02 -5.391816E-02
      74      -1.5000000000E-01 -4.0000000000E-01  0.0000000000E+00 -2.450825E-02  2.450825E-02 -5.391816E-02
      75      -1.0000000000E-01 -4.0000000000E-01  5.0000000000E-02 -2.450825E-02  3.431155E-02 -5.391816E-02
      76      -5.0000000000E-02 -4.0000000000E-01  1.0000000000E-01 -2.450825E-02  4.411486E-02 -5.391816E-02
      77      -2.0000000000E-01 -3.5000000000E-01  0.0000000000E+00 -1.470495E-02  1.470495E-02 -5.391816E-02
      78      -1.5000000000E-01 -3.5000000000E-01  5.0000000000E-02 -1.470495E-02  2.450825E-02 -5.391816E-02
      79      -1.0000000000E-01 -3.5000000000E-01  1.0000000000E-01 -1.470495E-02  3.431155E-02 -5.391816E-02
      80      -5.0000000000E-02 -3.5000000000E-01  1.5000000000E-01 -1.470495E-02  4.411486E-02 -5.391816E-02
      81      -2.5000000000E-01 -3.0000000000E-01  0.0000000000E+00 -4.901651E-03  4.901651E-03 -5.391816E-02
      82      -2.0000000000E-01 -3.0000000000E-01  5.0000000000E-02 -4.901651E-03  1.470495E-02 -5.391816E-02
      83      -1.5000000000E-01 -3.0000000000E-01  1.0000000000E-01 -4.901651E-03  2.450825E-02 -5.391816E-02
      84      -1.0000000000E-01 -3.0000000000E-01  1.5000000000E-01 -4.901651E-03  3.431155E-02 -5.391816E-02
      85      -5.0000000000E-02 -3.0000000000E-01  2.0000000000E-01 -4.901651E-03  4.411486E-02 -5.391816E-02
      86      -3.0000000000E-01 -2.5000000000E-01  0.0000000000E+00  4.901651E-03 -4.901651E-03 -5.391816E-02
      87      -2.5000000000E-01 -2.5000000000E-01  5.0000000000E-02  4.901651E-03  4.901651E-03 -5.391816E-02
      88      -2.0000000000E-01 -2.5000000000E-01  1.0000000000E-01  4.901651E-03  1.470495E-02 -5.391816E-02
      89      -1.5000000000E-01 -2.5000000000E-01  1.5000000000E-01  4.901651E-03  2.450825E-02 -5.391816E-02
      90      -1.0000000000E-01 -2.5000000000E-01  2.0000000000E-01  4.901651E-03  3.431155E-02 -5.391816E-02
      91      -5.0000000000E-02 -2.5000000000E-01  2.5000000000E-01  4.901651E-03  4.411486E-02 -5.391816E-02
      92      -3.5000000000E-01 -2.0000000000E-01  0.0000000000E+00  1.470495E-02 -1.470495E-02 -5.391816E-02
      93      -3.0000000000E-01 -2.0000000000E-01  5.0000000000E-02  1.470495E-02 -4.901651E-03 -5.391816E-02
      94      -2.5000000000E-01 -2.0000000000E-01  1.0000000000E-01  1.470495E-02  4.901651E-03 -5.391816E-02
      95      -2.0000000000E-01 -2.0000000000E-01  1.5000000000E-01  1.470495E-02  1.470495E-02 -5.391816E-02
      96      -1.5000000000E-01 -2.0000000000E-01  2.0000000000E-01  1.470495E-02  2.450825E-02 -5.391816E-02
      97      -1.0000000000E-01 -2.0000000000E-01  2.5000000000E-01  1.470495E-02  3.431155E-02 -5.391816E-02
      98      -5.0000000000E-02 -2.0000000000E-01  3.0000000000E-01  1.470495E-02  4.411486E-02 -5.391816E-02
      99      -4.0000000000E-01 -1.5000000000E-01  0.0000000000E+00  2.450825E-02 -2.450825E-02 -5.391816E-02
     100      -3.5000000000E-01 -1.5000000000E-01  5.0000000000E-02  2.450825E-02 -1.470495E-02 -5.391816E-02
 

  chkneu : enter, dtset%nelect=   8.0000000000000000     
  occopt,dtset%nsppol,dtset%nspden=           1           1           1
  maxocc,nocc,occlast=   2.0000000000000000                4   2.0000000000000000     
 chkneu : initialized the occupation numbers for occopt=    1, spin-unpolarized or antiferromagnetic case :
  2.00  2.00  2.00  2.00  0.00
 invars2: take the default value of fband=  1.25000000E-01
       Simple Lattice Grid
 
 invars2 : Printing the k point grid (values of kptns - max 100 of them)
 nkpt=    2000
     ikpt istwfk    wtk       --------- reduced coordinates ---------  --------- cartesian coordinates ---------
       1     1  5.000000E-04 -5.000000E-02 -1.000000E-01  0.000000E+00 -4.901651E-03  4.901651E-03 -1.470495E-02
       2     1  5.000000E-04 -1.000000E-01 -5.000000E-02  0.000000E+00  4.901651E-03 -4.901651E-03 -1.470495E-02
       3     1  5.000000E-04 -5.000000E-02 -5.000000E-02  5.000000E-02  4.901651E-03  4.901651E-03 -1.470495E-02
       4     1  5.000000E-04 -5.000000E-02 -2.000000E-01  0.000000E+00 -1.470495E-02  1.470495E-02 -2.450825E-02
       5     1  5.000000E-04 -1.000000E-01 -1.500000E-01  0.000000E+00 -4.901651E-03  4.901651E-03 -2.450825E-02
       6     1  5.000000E-04 -5.000000E-02 -1.500000E-01  5.000000E-02 -4.901651E-03  1.470495E-02 -2.450825E-02
       7     1  5.000000E-04 -1.500000E-01 -1.000000E-01  0.000000E+00  4.901651E-03 -4.901651E-03 -2.450825E-02
       8     1  5.000000E-04 -1.000000E-01 -1.000000E-01  5.000000E-02  4.901651E-03  4.901651E-03 -2.450825E-02
       9     1  5.000000E-04 -5.000000E-02 -1.000000E-01  1.000000E-01  4.901651E-03  1.470495E-02 -2.450825E-02
      10     1  5.000000E-04 -2.000000E-01 -5.000000E-02  0.000000E+00  1.470495E-02 -1.470495E-02 -2.450825E-02
      11     1  5.000000E-04 -1.500000E-01 -5.000000E-02  5.000000E-02  1.470495E-02 -4.901651E-03 -2.450825E-02
      12     1  5.000000E-04 -1.000000E-01 -5.000000E-02  1.000000E-01  1.470495E-02  4.901651E-03 -2.450825E-02
      13     1  5.000000E-04 -5.000000E-02 -5.000000E-02  1.500000E-01  1.470495E-02  1.470495E-02 -2.450825E-02
      14     1  5.000000E-04 -5.000000E-02 -3.000000E-01  0.000000E+00 -2.450825E-02  2.450825E-02 -3.431155E-02
      15     1  5.000000E-04 -1.000000E-01 -2.500000E-01  0.000000E+00 -1.470495E-02  1.470495E-02 -3.431155E-02
      16     1  5.000000E-04 -5.000000E-02 -2.500000E-01  5.000000E-02 -1.470495E-02  2.450825E-02 -3.431155E-02
      17     1  5.000000E-04 -1.500000E-01 -2.000000E-01  0.000000E+00 -4.901651E-03  4.901651E-03 -3.431155E-02
      18     1  5.000000E-04 -1.000000E-01 -2.000000E-01  5.000000E-02 -4.901651E-03  1.470495E-02 -3.431155E-02
      19     1  5.000000E-04 -5.000000E-02 -2.000000E-01  1.000000E-01 -4.901651E-03  2.450825E-02 -3.431155E-02
      20     1  5.000000E-04 -2.000000E-01 -1.500000E-01  0.000000E+00  4.901651E-03 -4.901651E-03 -3.431155E-02
      21     1  5.000000E-04 -1.500000E-01 -1.500000E-01  5.000000E-02  4.901651E-03  4.901651E-03 -3.431155E-02
      22     1  5.000000E-04 -1.000000E-01 -1.500000E-01  1.000000E-01  4.901651E-03  1.470495E-02 -3.431155E-02
      23     1  5.000000E-04 -5.000000E-02 -1.500000E-01  1.500000E-01  4.901651E-03  2.450825E-02 -3.431155E-02
      24     1  5.000000E-04 -2.500000E-01 -1.000000E-01  0.000000E+00  1.470495E-02 -1.470495E-02 -3.431155E-02
      25     1  5.000000E-04 -2.000000E-01 -1.000000E-01  5.000000E-02  1.470495E-02 -4.901651E-03 -3.431155E-02
      26     1  5.000000E-04 -1.500000E-01 -1.000000E-01  1.000000E-01  1.470495E-02  4.901651E-03 -3.431155E-02
      27     1  5.000000E-04 -1.000000E-01 -1.000000E-01  1.500000E-01  1.470495E-02  1.470495E-02 -3.431155E-02
      28     1  5.000000E-04 -5.000000E-02 -1.000000E-01  2.000000E-01  1.470495E-02  2.450825E-02 -3.431155E-02
      29     1  5.000000E-04 -3.000000E-01 -5.000000E-02  0.000000E+00  2.450825E-02 -2.450825E-02 -3.431155E-02
      30     1  5.000000E-04 -2.500000E-01 -5.000000E-02  5.000000E-02  2.450825E-02 -1.470495E-02 -3.431155E-02
      31     1  5.000000E-04 -2.000000E-01 -5.000000E-02  1.000000E-01  2.450825E-02 -4.901651E-03 -3.431155E-02
      32     1  5.000000E-04 -1.500000E-01 -5.000000E-02  1.500000E-01  2.450825E-02  4.901651E-03 -3.431155E-02
      33     1  5.000000E-04 -1.000000E-01 -5.000000E-02  2.000000E-01  2.450825E-02  1.470495E-02 -3.431155E-02
      34     1  5.000000E-04 -5.000000E-02 -5.000000E-02  2.500000E-01  2.450825E-02  2.450825E-02 -3.431155E-02
      35     1  5.000000E-04 -5.000000E-02 -4.000000E-01  0.000000E+00 -3.431155E-02  3.431155E-02 -4.411486E-02
      36     1  5.000000E-04 -1.000000E-01 -3.500000E-01  0.000000E+00 -2.450825E-02  2.450825E-02 -4.411486E-02
      37     1  5.000000E-04 -5.000000E-02 -3.500000E-01  5.000000E-02 -2.450825E-02  3.431155E-02 -4.411486E-02
      38     1  5.000000E-04 -1.500000E-01 -3.000000E-01  0.000000E+00 -1.470495E-02  1.470495E-02 -4.411486E-02
      39     1  5.000000E-04 -1.000000E-01 -3.000000E-01  5.000000E-02 -1.470495E-02  2.450825E-02 -4.411486E-02
      40     1  5.000000E-04 -5.000000E-02 -3.000000E-01  1.000000E-01 -1.470495E-02  3.431155E-02 -4.411486E-02
      41     1  5.000000E-04 -2.000000E-01 -2.500000E-01  0.000000E+00 -4.901651E-03  4.901651E-03 -4.411486E-02
      42     1  5.000000E-04 -1.500000E-01 -2.500000E-01  5.000000E-02 -4.901651E-03  1.470495E-02 -4.411486E-02
      43     1  5.000000E-04 -1.000000E-01 -2.500000E-01  1.000000E-01 -4.901651E-03  2.450825E-02 -4.411486E-02
      44     1  5.000000E-04 -5.000000E-02 -2.500000E-01  1.500000E-01 -4.901651E-03  3.431155E-02 -4.411486E-02
      45     1  5.000000E-04 -2.500000E-01 -2.000000E-01  0.000000E+00  4.901651E-03 -4.901651E-03 -4.411486E-02
      46     1  5.000000E-04 -2.000000E-01 -2.000000E-01  5.000000E-02  4.901651E-03  4.901651E-03 -4.411486E-02
      47     1  5.000000E-04 -1.500000E-01 -2.000000E-01  1.000000E-01  4.901651E-03  1.470495E-02 -4.411486E-02
      48     1  5.000000E-04 -1.000000E-01 -2.000000E-01  1.500000E-01  4.901651E-03  2.450825E-02 -4.411486E-02
      49     1  5.000000E-04 -5.000000E-02 -2.000000E-01  2.000000E-01  4.901651E-03  3.431155E-02 -4.411486E-02
      50     1  5.000000E-04 -3.000000E-01 -1.500000E-01  0.000000E+00  1.470495E-02 -1.470495E-02 -4.411486E-02
      51     1  5.000000E-04 -2.500000E-01 -1.500000E-01  5.000000E-02  1.470495E-02 -4.901651E-03 -4.411486E-02
      52     1  5.000000E-04 -2.000000E-01 -1.500000E-01  1.000000E-01  1.470495E-02  4.901651E-03 -4.411486E-02
      53     1  5.000000E-04 -1.500000E-01 -1.500000E-01  1.500000E-01  1.470495E-02  1.470495E-02 -4.411486E-02
      54     1  5.000000E-04 -1.000000E-01 -1.500000E-01  2.000000E-01  1.470495E-02  2.450825E-02 -4.411486E-02
      55     1  5.000000E-04 -5.000000E-02 -1.500000E-01  2.500000E-01  1.470495E-02  3.431155E-02 -4.411486E-02
      56     1  5.000000E-04 -3.500000E-01 -1.000000E-01  0.000000E+00  2.450825E-02 -2.450825E-02 -4.411486E-02
      57     1  5.000000E-04 -3.000000E-01 -1.000000E-01  5.000000E-02  2.450825E-02 -1.470495E-02 -4.411486E-02
      58     1  5.000000E-04 -2.500000E-01 -1.000000E-01  1.000000E-01  2.450825E-02 -4.901651E-03 -4.411486E-02
      59     1  5.000000E-04 -2.000000E-01 -1.000000E-01  1.500000E-01  2.450825E-02  4.901651E-03 -4.411486E-02
      60     1  5.000000E-04 -1.500000E-01 -1.000000E-01  2.000000E-01  2.450825E-02  1.470495E-02 -4.411486E-02
      61     1  5.000000E-04 -1.000000E-01 -1.000000E-01  2.500000E-01  2.450825E-02  2.450825E-02 -4.411486E-02
      62     1  5.000000E-04 -5.000000E-02 -1.000000E-01  3.000000E-01  2.450825E-02  3.431155E-02 -4.411486E-02
      63     1  5.000000E-04 -4.000000E-01 -5.000000E-02  0.000000E+00  3.431155E-02 -3.431155E-02 -4.411486E-02
      64     1  5.000000E-04 -3.500000E-01 -5.000000E-02  5.000000E-02  3.431155E-02 -2.450825E-02 -4.411486E-02
      65     1  5.000000E-04 -3.000000E-01 -5.000000E-02  1.000000E-01  3.431155E-02 -1.470495E-02 -4.411486E-02
      66     1  5.000000E-04 -2.500000E-01 -5.000000E-02  1.500000E-01  3.431155E-02 -4.901651E-03 -4.411486E-02
      67     1  5.000000E-04 -2.000000E-01 -5.000000E-02  2.000000E-01  3.431155E-02  4.901651E-03 -4.411486E-02
      68     1  5.000000E-04 -1.500000E-01 -5.000000E-02  2.500000E-01  3.431155E-02  1.470495E-02 -4.411486E-02
[...]
  1.30E-11 1.38E-12 1.39E-11 1.27E-11 3.66E-09
  -0.1000 -0.0500  0.2000    1  3.97224E-10 kpt; spin; max resid(k); each band:
  1.29E-11 3.20E-12 1.30E-11 1.03E-11 3.97E-10
  -0.0500 -0.0500  0.2500    1  1.59202E-10 kpt; spin; max resid(k); each band:
  1.28E-11 2.85E-12 1.21E-11 4.47E-13 1.59E-10
  -0.0500 -0.4000  0.0000    1  1.20640E-10 kpt; spin; max resid(k); each band:
  1.25E-11 4.11E-12 1.13E-11 5.82E-13 1.21E-10
  -0.1000 -0.3500  0.0000    1  1.56106E-10 kpt; spin; max resid(k); each band:
  1.49E-11 4.10E-12 1.17E-11 1.54E-12 1.56E-10
  -0.0500 -0.3500  0.0500    1  6.85947E-10 kpt; spin; max resid(k); each band:
  1.23E-11 4.20E-12 1.41E-11 1.50E-11 6.86E-10
  -0.1500 -0.3000  0.0000    1  1.66885E-11 kpt; spin; max resid(k); each band:
  1.67E-11 4.87E-12 1.18E-11 2.73E-12 1.25E-11
  -0.1000 -0.3000  0.0500    1  1.38398E-10 kpt; spin; max resid(k); each band:
  1.58E-11 3.87E-12 1.21E-11 1.35E-11 1.38E-10
  -0.0500 -0.3000  0.1000    1  1.50107E-10 kpt; spin; max resid(k); each band:
  1.10E-11 5.88E-12 1.27E-11 1.56E-11 1.50E-10
  -0.2000 -0.2500  0.0000    1  1.76232E-11 kpt; spin; max resid(k); each band:
  1.65E-11 8.48E-12 1.71E-11 2.41E-12 1.76E-11
  -0.1500 -0.2500  0.0500    1  1.98520E-11 kpt; spin; max resid(k); each band:
  1.53E-11 4.11E-12 1.41E-11 1.01E-11 1.99E-11
  -0.1000 -0.2500  0.1000    1  2.15336E-11 kpt; spin; max resid(k); each band:
  1.43E-11 2.02E-12 1.32E-11 1.31E-11 2.15E-11
  -0.0500 -0.2500  0.1500    1  5.44667E-10 kpt; spin; max resid(k); each band:
  9.19E-12 4.71E-12 1.52E-11 1.63E-11 5.45E-10
  -0.2500 -0.2000  0.0000    1  1.76232E-11 kpt; spin; max resid(k); each band:
  1.65E-11 8.48E-12 1.71E-11 2.41E-12 1.76E-11
  -0.2000 -0.2000  0.0500    1  1.85064E-11 kpt; spin; max resid(k); each band:
  1.47E-11 5.87E-12 1.85E-11 1.62E-13 1.64E-11
  -0.1500 -0.2000  0.1000    1  2.36924E-11 kpt; spin; max resid(k); each band:
  1.28E-11 2.87E-12 1.52E-11 6.52E-12 2.37E-11
  -0.1000 -0.2000  0.1500    1  6.52143E-11 kpt; spin; max resid(k); each band:
  1.10E-11 2.54E-12 1.49E-11 1.18E-11 6.52E-11
  -0.0500 -0.2000  0.2000    1  4.55534E-10 kpt; spin; max resid(k); each band:
  9.15E-12 3.04E-12 1.66E-11 1.60E-11 4.56E-10
  -0.3000 -0.1500  0.0000    1  1.66885E-11 kpt; spin; max resid(k); each band:
  1.67E-11 4.87E-12 1.18E-11 2.73E-12 1.25E-11
 outwf : prtvol=0 or 1, do not print more k-points.


 outwf: write wavefunction to file Si_o_DS4_WFK, with iomode -1
 outwf with iomode: -1, cpu_time:     2.26[s], walltime:     2.46 [s]
 prteigrs : about to open file Si_o_DS4_EIG
 Fermi (or HOMO) energy (hartree) =   0.22411   Average Vxc (hartree)=  -0.35516
 Eigenvalues (hartree) for nkpt=2000  k points:
 kpt#   1, nband=  5, wtk=  0.00050, kpt= -0.0500 -0.1000  0.0000 (reduced coord)
  -0.22230    0.18241    0.20062    0.21615    0.30483
 kpt#   2, nband=  5, wtk=  0.00050, kpt= -0.1000 -0.0500  0.0000 (reduced coord)
  -0.22230    0.18241    0.20062    0.21615    0.30483
 kpt#   3, nband=  5, wtk=  0.00050, kpt= -0.0500 -0.0500  0.0500 (reduced coord)
  -0.22233    0.18987    0.19683    0.21117    0.30480
 kpt#   4, nband=  5, wtk=  0.00050, kpt= -0.0500 -0.2000  0.0000 (reduced coord)
  -0.20948    0.11902    0.18266    0.20369    0.30500
 kpt#   5, nband=  5, wtk=  0.00050, kpt= -0.1000 -0.1500  0.0000 (reduced coord)
  -0.21579    0.15761    0.18428    0.19777    0.29326
 kpt#   6, nband=  5, wtk=  0.00050, kpt= -0.0500 -0.1500  0.0500 (reduced coord)
  -0.21268    0.14150    0.17582    0.20101    0.30960
 kpt#   7, nband=  5, wtk=  0.00050, kpt= -0.1500 -0.1000  0.0000 (reduced coord)
  -0.21579    0.15761    0.18428    0.19777    0.29326
 kpt#   8, nband=  5, wtk=  0.00050, kpt= -0.1000 -0.1000  0.0500 (reduced coord)
  -0.21585    0.16513    0.17984    0.19336    0.29406
 kpt#   9, nband=  5, wtk=  0.00050, kpt= -0.0500 -0.1000  0.1000 (reduced coord)
  -0.21271    0.14340    0.17438    0.20010    0.30753
 kpt#  10, nband=  5, wtk=  0.00050, kpt= -0.2000 -0.0500  0.0000 (reduced coord)
  -0.20948    0.11902    0.18266    0.20369    0.30500
 kpt#  11, nband=  5, wtk=  0.00050, kpt= -0.1500 -0.0500  0.0500 (reduced coord)
  -0.21268    0.14150    0.17582    0.20101    0.30960
 kpt#  12, nband=  5, wtk=  0.00050, kpt= -0.1000 -0.0500  0.1000 (reduced coord)
  -0.21271    0.14340    0.17438    0.20010    0.30753
 kpt#  13, nband=  5, wtk=  0.00050, kpt= -0.0500 -0.0500  0.1500 (reduced coord)
  -0.20957    0.12126    0.18692    0.19553    0.30239
 kpt#  14, nband=  5, wtk=  0.00050, kpt= -0.0500 -0.3000  0.0000 (reduced coord)
  -0.18795    0.05233    0.17054    0.18927    0.29263
 kpt#  15, nband=  5, wtk=  0.00050, kpt= -0.1000 -0.2500  0.0000 (reduced coord)
  -0.19991    0.09509    0.16776    0.18418    0.30053
 kpt#  16, nband=  5, wtk=  0.00050, kpt= -0.0500 -0.2500  0.0500 (reduced coord)
  -0.19393    0.07472    0.16240    0.18641    0.30851
 kpt#  17, nband=  5, wtk=  0.00050, kpt= -0.1500 -0.2000  0.0000 (reduced coord)
  -0.20607    0.12963    0.16759    0.17720    0.27942
 kpt#  18, nband=  5, wtk=  0.00050, kpt= -0.1000 -0.2000  0.0500 (reduced coord)
  -0.20307    0.11569    0.15926    0.18196    0.29622
 kpt#  19, nband=  5, wtk=  0.00050, kpt= -0.0500 -0.2000  0.1000 (reduced coord)
  -0.19697    0.09537    0.14211    0.19044    0.32258
 kpt#  20, nband=  5, wtk=  0.00050, kpt= -0.2000 -0.1500  0.0000 (reduced coord)
  -0.20607    0.12963    0.16759    0.17720    0.27942
 kpt#  21, nband=  5, wtk=  0.00050, kpt= -0.1500 -0.1500  0.0500 (reduced coord)
  -0.20616    0.13561    0.16231    0.17538    0.28057
 kpt#  22, nband=  5, wtk=  0.00050, kpt= -0.1000 -0.1500  0.1000 (reduced coord)
  -0.20313    0.11845    0.15568    0.18233    0.29676
 kpt#  23, nband=  5, wtk=  0.00050, kpt= -0.0500 -0.1500  0.1500 (reduced coord)
  -0.19700    0.09640    0.14054    0.19097    0.31780
 kpt#  24, nband=  5, wtk=  0.00050, kpt= -0.2500 -0.1000  0.0000 (reduced coord)
  -0.19991    0.09509    0.16776    0.18418    0.30053
 kpt#  25, nband=  5, wtk=  0.00050, kpt= -0.2000 -0.1000  0.0500 (reduced coord)
  -0.20307    0.11569    0.15926    0.18196    0.29622
 kpt#  26, nband=  5, wtk=  0.00050, kpt= -0.1500 -0.1000  0.1000 (reduced coord)
  -0.20313    0.11845    0.15568    0.18233    0.29676
 kpt#  27, nband=  5, wtk=  0.00050, kpt= -0.1000 -0.1000  0.1500 (reduced coord)
  -0.20010    0.09869    0.16786    0.17887    0.30147
 kpt#  28, nband=  5, wtk=  0.00050, kpt= -0.0500 -0.1000  0.2000 (reduced coord)
  -0.19402    0.07605    0.15987    0.18736    0.30482
 kpt#  29, nband=  5, wtk=  0.00050, kpt= -0.3000 -0.0500  0.0000 (reduced coord)
  -0.18795    0.05233    0.17054    0.18927    0.29263
 kpt#  30, nband=  5, wtk=  0.00050, kpt= -0.2500 -0.0500  0.0500 (reduced coord)
  -0.19393    0.07472    0.16240    0.18641    0.30851
 kpt#  31, nband=  5, wtk=  0.00050, kpt= -0.2000 -0.0500  0.1000 (reduced coord)
  -0.19697    0.09537    0.14211    0.19044    0.32258
 kpt#  32, nband=  5, wtk=  0.00050, kpt= -0.1500 -0.0500  0.1500 (reduced coord)
  -0.19700    0.09640    0.14054    0.19097    0.31780
 kpt#  33, nband=  5, wtk=  0.00050, kpt= -0.1000 -0.0500  0.2000 (reduced coord)
  -0.19402    0.07605    0.15987    0.18736    0.30482
 kpt#  34, nband=  5, wtk=  0.00050, kpt= -0.0500 -0.0500  0.2500 (reduced coord)
  -0.18810    0.05352    0.17371    0.18385    0.29127
 kpt#  35, nband=  5, wtk=  0.00050, kpt= -0.0500 -0.4000  0.0000 (reduced coord)
  -0.16070   -0.00459    0.16326    0.17857    0.28315
 kpt#  36, nband=  5, wtk=  0.00050, kpt= -0.1000 -0.3500  0.0000 (reduced coord)
  -0.17594    0.03246    0.15693    0.16940    0.29804
 kpt#  37, nband=  5, wtk=  0.00050, kpt= -0.0500 -0.3500  0.0500 (reduced coord)
  -0.16800    0.01396    0.15516    0.17183    0.29872
 kpt#  38, nband=  5, wtk=  0.00050, kpt= -0.1500 -0.3000  0.0000 (reduced coord)
  -0.18728    0.07173    0.15186    0.16163    0.28756
 kpt#  39, nband=  5, wtk=  0.00050, kpt= -0.1000 -0.3000  0.0500 (reduced coord)
  -0.18161    0.05335    0.14682    0.16598    0.30307
 kpt#  40, nband=  5, wtk=  0.00050, kpt= -0.0500 -0.3000  0.1000 (reduced coord)
  -0.17313    0.03461    0.13045    0.17475    0.31705
 kpt#  41, nband=  5, wtk=  0.00050, kpt= -0.2000 -0.2500  0.0000 (reduced coord)
  -0.19320    0.09971    0.15207    0.15821    0.26596
 kpt#  42, nband=  5, wtk=  0.00050, kpt= -0.1500 -0.2500  0.0500 (reduced coord)
  -0.19035    0.08927    0.14351    0.16107    0.28285
 kpt#  43, nband=  5, wtk=  0.00050, kpt= -0.1000 -0.2500  0.1000 (reduced coord)
  -0.18451    0.07196    0.12635    0.17066    0.30977
 kpt#  44, nband=  5, wtk=  0.00050, kpt= -0.0500 -0.2500  0.1500 (reduced coord)
  -0.17578    0.05320    0.10862    0.17665    0.32418
 kpt#  45, nband=  5, wtk=  0.00050, kpt= -0.2500 -0.2000  0.0000 (reduced coord)
  -0.19320    0.09971    0.15207    0.15821    0.26596
 kpt#  46, nband=  5, wtk=  0.00050, kpt= -0.2000 -0.2000  0.0500 (reduced coord)
  -0.19334    0.10406    0.14604    0.15893    0.26736
 kpt#  47, nband=  5, wtk=  0.00050, kpt= -0.1500 -0.2000  0.1000 (reduced coord)
  -0.19044    0.09223    0.13777    0.16342    0.28453
 kpt#  48, nband=  5, wtk=  0.00050, kpt= -0.1000 -0.2000  0.1500 (reduced coord)
  -0.18456    0.07360    0.12324    0.17212    0.31058
 kpt#  49, nband=  5, wtk=  0.00050, kpt= -0.0500 -0.2000  0.2000 (reduced coord)
  -0.17580    0.05389    0.10729    0.17741    0.32178
 kpt#  50, nband=  5, wtk=  0.00050, kpt= -0.3000 -0.1500  0.0000 (reduced coord)
  -0.18728    0.07173    0.15186    0.16163    0.28756
 prteigrs : prtvol=0 or 1, do not print more k-points.

 Total charge density [el/Bohr^3]
      Maximum=    9.4042E-02  at reduced coord.    0.1400    0.1400    0.1400
 Next maximum=    9.3973E-02  at reduced coord.    0.1200    0.1200    0.1200
      Minimum=    3.5813E-03  at reduced coord.    0.5000    0.5000    0.5000
 Next minimum=    3.5931E-03  at reduced coord.    0.7600    0.7600    0.7400
   Integrated=    8.0000E+00

 Cartesian components of stress tensor (hartree/bohr^3)
  sigma(1 1)= -7.92115832E-06  sigma(3 2)= -6.63166850E-05
  sigma(2 2)= -7.92115832E-06  sigma(3 1)= -6.63166850E-05
  sigma(3 3)= -7.92115832E-06  sigma(2 1)= -6.63166850E-05

-Cartesian components of stress tensor (GPa)         [Pressure=  2.3305E-01 GPa]
- sigma(1 1)= -2.33048485E-01  sigma(3 2)= -1.95110391E+00
- sigma(2 2)= -2.33048485E-01  sigma(3 1)= -1.95110391E+00
- sigma(3 3)= -2.33048485E-01  sigma(2 1)= -1.95110391E+00

================================================================================
== DATASET  5 ==================================================================
-   nproc =    1


 getdim_nloc : deduce lmnmax  =   4, lnmax  =   2,
                      lmnmaxso=   4, lnmaxso=   2.
 Exchange-correlation functional for the present dataset will be:
  LDA: new Teter (4/93) with spin-polarized option - ixc=1
 Citation for XC functional:
  S. Goedecker, M. Teter, J. Huetter, PRB 54, 1703 (1996)

 Unit cell volume ucvol=  2.6535237E+02 bohr^3
 Angles (23,13,12)=  6.00000000E+01  6.00000000E+01  6.00000000E+01 degrees

 getcut: wavevector=  0.0000  0.0000  0.0000  ngfft=  50  50  50
         ecut(hartree)=     55.125   => boxcut(ratio)=   2.07487
inwffil: examining the header of disk file Si_i_DS5_WFK

================================================================================

          - hdr_check: checking restart file header for consistency -


        current calculation                         restart file
        -------------------                         ------------

  calculation expects a wf_planewave    |  input file contains a wf_planewave
. ABINIT  code version 8.0.7            |  ABINIT  code version 8.0.7
. date 20180426 bantot **** natom    2  |  date 20180418 bantot  550 natom    2
  nkpt2000 nsym 12 ngfft  50,  50,  50  |  nkpt 110 nsym 48 ngfft  50,  50,  50
  ntypat  1 ecut_eff  55.1250000        |  ntypat  1 ecut_eff  55.1250000
  usepaw  0                             |  usepaw  0
  usewvl  0                             |  usewvl  0
  rprimd:                               |  rprimd:
     0.0000000   5.1003228   5.1003228  |     0.0000000   5.0900000   5.0900000
     5.1003228   0.0000000   5.1003228  |     5.0900000   0.0000000   5.0900000
     5.1003228   5.1003228   0.0000000  |     5.0900000   5.0900000   0.0000000

--- !WARNING
src_file: m_hdr.F90
src_line: 3980
message: |
    input nkpt=2000 not equal disk file nkpt=110
...


--- !WARNING
src_file: m_hdr.F90
src_line: 4001
message: |
    input nsym=12 not equal disk file nsym=48
...


--- !WARNING
src_file: m_hdr.F90
src_line: 4037
message: |
    input rprimd(1,2)=  5.100322755E+00 /= disk file rprimd(1,2)=  5.090000000E+00
...


--- !WARNING
src_file: m_hdr.F90
src_line: 4037
message: |
    input rprimd(1,3)=  5.100322755E+00 /= disk file rprimd(1,3)=  5.090000000E+00
...


--- !WARNING
src_file: m_hdr.F90
src_line: 4037
message: |
    input rprimd(2,1)=  5.100322755E+00 /= disk file rprimd(2,1)=  5.090000000E+00
...


--- !WARNING
src_file: m_hdr.F90
src_line: 4037
message: |
    input rprimd(2,3)=  5.100322755E+00 /= disk file rprimd(2,3)=  5.090000000E+00
...


--- !WARNING
src_file: m_hdr.F90
src_line: 4037
message: |
    input rprimd(3,1)=  5.100322755E+00 /= disk file rprimd(3,1)=  5.090000000E+00
...


--- !WARNING
src_file: m_hdr.F90
src_line: 4037
message: |
    input rprimd(3,2)=  5.100322755E+00 /= disk file rprimd(3,2)=  5.090000000E+00
...

  typat:                                |  typat:
    1  1                                |    1  1
  so_psp  :                             |  so_psp  :
    1                                   |    1

--- !WARNING
src_file: m_hdr.F90
src_line: 4214
message: |
    input kptopt= 2  /= disk file kptopt= 1
...

   znucl:                               |   znucl:
   14.00                                |   14.00
  pseudopotential atom type  1:         |  pseudopotential atom type  1:
  pspso   0 pspxc   1                   |  pspso   0 pspxc   1
  pspdat 940714 pspcod    1 zion   4.0  |  pspdat 940714 pspcod    1 zion   4.0
  xred:                                 |  xred:
     0.0050000   0.0050000   0.0050000  |    -0.0000000   0.0000000  -0.0000000
     0.2450000   0.2450000   0.2450000  |     0.2500000   0.2500000   0.2500000

--- !WARNING
src_file: m_hdr.F90
src_line: 4509
message: |
    Restart of self-consistent calculation need translated wavefunctions.
...

  Indeed, critical differences between current calculation and
  restart file have been detected in:
        * the number, position, or weight of k-points
        * the format of wavefunctions (istwfk)
        * the vectors defining the unit cell (obtained from rprim and acell)
================================================================================
-inwffil : will read wavefunctions from disk file Si_i_DS5_WFK
 initwf: disk file gives npw= 5100 nband= 5 for kpt number= 1
 initwf: 5 bands have been initialized from disk
 initwf: disk file gives npw= 5128 nband= 5 for kpt number= 2
 initwf: 5 bands have been initialized from disk
 initwf: disk file gives npw= 5111 nband= 5 for kpt number= 3
 initwf: 5 bands have been initialized from disk
 initwf: disk file gives npw= 5118 nband= 5 for kpt number= 4
 initwf: 5 bands have been initialized from disk
 initwf: disk file gives npw= 5151 nband= 5 for kpt number= 5
 initwf: 5 bands have been initialized from disk
 initwf: disk file gives npw= 5155 nband= 5 for kpt number= 6
 initwf: 5 bands have been initialized from disk
 initwf: disk file gives npw= 5158 nband= 5 for kpt number= 7
 initwf: 5 bands have been initialized from disk
 initwf: disk file gives npw= 5130 nband= 5 for kpt number= 8
 initwf: 5 bands have been initialized from disk
 initwf: disk file gives npw= 5149 nband= 5 for kpt number= 9
 initwf: 5 bands have been initialized from disk
 initwf: disk file gives npw= 5152 nband= 5 for kpt number= 10
 initwf: 5 bands have been initialized from disk
 initwf: disk file gives npw= 5153 nband= 5 for kpt number= 11
 initwf: 5 bands have been initialized from disk
 initwf: disk file gives npw= 5150 nband= 5 for kpt number= 12
 initwf: 5 bands have been initialized from disk
 initwf: disk file gives npw= 5157 nband= 5 for kpt number= 13
 initwf: 5 bands have been initialized from disk
 initwf: disk file gives npw= 5152 nband= 5 for kpt number= 14
 initwf: 5 bands have been initialized from disk
 initwf: disk file gives npw= 5157 nband= 5 for kpt number= 15
 initwf: 5 bands have been initialized from disk
 initwf: disk file gives npw= 5153 nband= 5 for kpt number= 16
 initwf: 5 bands have been initialized from disk
 initwf: disk file gives npw= 5139 nband= 5 for kpt number= 17
 initwf: 5 bands have been initialized from disk
 initwf: disk file gives npw= 5146 nband= 5 for kpt number= 18
 initwf: 5 bands have been initialized from disk
 initwf: disk file gives npw= 5154 nband= 5 for kpt number= 19
 initwf: 5 bands have been initialized from disk
 initwf: disk file gives npw= 5148 nband= 5 for kpt number= 20
 initwf: 5 bands have been initialized from disk
 initwf: disk file gives npw= 5163 nband= 5 for kpt number= 21
 initwf: 5 bands have been initialized from disk
 initwf: disk file gives npw= 5160 nband= 5 for kpt number= 22
 initwf: 5 bands have been initialized from disk
 initwf: disk file gives npw= 5153 nband= 5 for kpt number= 23
 initwf: 5 bands have been initialized from disk
 initwf: disk file gives npw= 5153 nband= 5 for kpt number= 24
 initwf: 5 bands have been initialized from disk
 initwf: disk file gives npw= 5158 nband= 5 for kpt number= 25
 initwf: 5 bands have been initialized from disk
 initwf: disk file gives npw= 5151 nband= 5 for kpt number= 26
 initwf: 5 bands have been initialized from disk
 initwf: disk file gives npw= 5153 nband= 5 for kpt number= 27
 initwf: 5 bands have been initialized from disk
 initwf: disk file gives npw= 5153 nband= 5 for kpt number= 28
 initwf: 5 bands have been initialized from disk
 initwf: disk file gives npw= 5159 nband= 5 for kpt number= 29
 initwf: 5 bands have been initialized from disk
 initwf: disk file gives npw= 5157 nband= 5 for kpt number= 30
 initwf: 5 bands have been initialized from disk
 initwf: disk file gives npw= 5128 nband= 5 for kpt number= 31
 initwf: 5 bands have been initialized from disk
 initwf: disk file gives npw= 5144 nband= 5 for kpt number= 32
 initwf: 5 bands have been initialized from disk
 initwf: disk file gives npw= 5152 nband= 5 for kpt number= 33
 initwf: 5 bands have been initialized from disk
 initwf: disk file gives npw= 5155 nband= 5 for kpt number= 34
 initwf: 5 bands have been initialized from disk
 initwf: disk file gives npw= 5168 nband= 5 for kpt number= 35
 initwf: 5 bands have been initialized from disk
 initwf: disk file gives npw= 5156 nband= 5 for kpt number= 36
 initwf: 5 bands have been initialized from disk
 initwf: disk file gives npw= 5159 nband= 5 for kpt number= 37
 initwf: 5 bands have been initialized from disk
 initwf: disk file gives npw= 5159 nband= 5 for kpt number= 38
 initwf: 5 bands have been initialized from disk
 initwf: disk file gives npw= 5158 nband= 5 for kpt number= 39
 initwf: 5 bands have been initialized from disk
 initwf: disk file gives npw= 5157 nband= 5 for kpt number= 40
 initwf: 5 bands have been initialized from disk
 initwf: disk file gives npw= 5162 nband= 5 for kpt number= 41
 initwf: 5 bands have been initialized from disk
 initwf: disk file gives npw= 5167 nband= 5 for kpt number= 42
 initwf: 5 bands have been initialized from disk
 initwf: disk file gives npw= 5164 nband= 5 for kpt number= 43
 initwf: 5 bands have been initialized from disk
 initwf: disk file gives npw= 5153 nband= 5 for kpt number= 44
 initwf: 5 bands have been initialized from disk
 initwf: disk file gives npw= 5154 nband= 5 for kpt number= 45
 initwf: 5 bands have been initialized from disk
 initwf: disk file gives npw= 5156 nband= 5 for kpt number= 46
