## SLURM PROLOG ###############################################################
##    Job ID : 19320885
##  Job Name : abinit_kpoint_opt
##  Nodelist : node816
##      CPUs : 
##  Mem/Node : 49152 MB
## Directory : /gpfs/scratch/ssamanta/ENGN_2930/kpoint_optimise
##   Started : Thu Apr 26 11:53:13 EDT 2018
###############################################################################
module: loading 'abinit/8.0.7'
  ABINIT 8.0.7
  
  Give name for formatted input file: 
Si_in.txt
  Give name for formatted output file:
Si_out.txt
  Give root name for generic input files:
Si_i
  Give root name for generic output files:
Si_o
  Give root name for generic temporary files:
Si_

.Version 8.0.7 of ABINIT 
.(MPI version, prepared for a x86_64_linux_gnu4.9 computer) 

.Copyright (C) 1998-2016 ABINIT group . 
 ABINIT comes with ABSOLUTELY NO WARRANTY.
 It is free software, and you are welcome to redistribute it
 under certain conditions (GNU General Public License,
 see ~abinit/COPYING or http://www.gnu.org/copyleft/gpl.txt).

 ABINIT is a project of the Universite Catholique de Louvain,
 Corning Inc. and other collaborators, see ~abinit/doc/developers/contributors.txt .
 Please read ~abinit/doc/users/acknowledgments.html for suggested
 acknowledgments of the ABINIT effort.
 For more information, see http://www.abinit.org .

.Starting date : Thu 26 Apr 2018.
- ( at 11h53 )
  

 ++++++++++++++++++++++++++++++++++++++++++++++++++++++++++++++++++++++++++++++

 === Build Information === 
  Version       : 8.0.7
  Build target  : x86_64_linux_gnu4.9
  Build date    : 20160627

 === Compiler Suite === 
  C compiler       : gnu4.9
  C++ compiler     : gnu4.9
  Fortran compiler : gnu4.9
  CFLAGS           :  -g -O2 -mtune=native -march=native
  CXXFLAGS         :  -g -O2 -mtune=native -march=native
  FCFLAGS          :  -g -ffree-line-length-none
  FC_LDFLAGS       : 

 === Optimizations === 
  Debug level        : basic
  Optimization level : standard
  Architecture       : intel_xeon

 === Multicore === 
  Parallel build : yes
  Parallel I/O   : auto
  openMP support : no
  GPU support    : no

 === Connectors / Fallbacks === 
  Connectors on : yes
  Fallbacks on  : yes
  DFT flavor    : none
  FFT flavor    : none
  LINALG flavor : netlib-fallback
  MATH flavor   : none
  TIMER flavor  : abinit
  TRIO flavor   : none

 === Experimental features === 
  Bindings            : @enable_bindings@
  Exports             : no
  GW double-precision : no

 ++++++++++++++++++++++++++++++++++++++++++++++++++++++++++++++++++++++++++++++


 ++++++++++++++++++++++++++++++++++++++++++++++++++++++++++++++++++++++++++++++
 Default optimizations:
   -O2 -mtune=native -march=native


 Optimizations for 20_datashare:
   -O0


 ++++++++++++++++++++++++++++++++++++++++++++++++++++++++++++++++++++++++++++++


 ++++++++++++++++++++++++++++++++++++++++++++++++++++++++++++++++++++++++++++++
 CPP options activated during the build:

                    CC_GNU                   CXX_GNU                    FC_GNU
 
 HAVE_FC_ALLOCATABLE_DT...             HAVE_FC_ASYNC         HAVE_FC_BACKTRACE
 
  HAVE_FC_COMMAND_ARGUMENT      HAVE_FC_COMMAND_LINE        HAVE_FC_CONTIGUOUS
 
           HAVE_FC_CPUTIME              HAVE_FC_EXIT             HAVE_FC_FLUSH
 
             HAVE_FC_GAMMA            HAVE_FC_GETENV          HAVE_FC_INT_QUAD
 
             HAVE_FC_IOMSG     HAVE_FC_ISO_C_BINDING  HAVE_FC_ISO_FORTRAN_2008
 
        HAVE_FC_LONG_LINES        HAVE_FC_MOVE_ALLOC           HAVE_FC_PRIVATE
 
         HAVE_FC_PROTECTED         HAVE_FC_STREAM_IO            HAVE_FC_SYSTEM
 
          HAVE_FORTRAN2003        HAVE_LIBPAW_ABINIT      HAVE_LIBTETRA_ABINIT
 
                  HAVE_MPI                 HAVE_MPI1               HAVE_MPI_IO
 
 HAVE_MPI_TYPE_CREATE_S...                HAVE_NUMPY             HAVE_OS_LINUX
 
                HAVE_TIMER         HAVE_TIMER_ABINIT            HAVE_TIMER_MPI
 
         HAVE_TIMER_SERIAL              USE_MACROAVE                            
 ++++++++++++++++++++++++++++++++++++++++++++++++++++++++++++++++++++++++++++++

- input  file    -> Si_in.txt
- output file    -> Si_out.txt
- root for input  files -> Si_i
- root for output files -> Si_o

-instrng: 69 lines of input have been read from file Si_in.txt

  status : statnu, output_rate, shift_rate=           1           0           1
 level,routine=           3 init istatr   
 active(level)=           1
 counter,actual_counter(level,1:2)=           0           0           0
 List of active levels :
  Active level number=           3

 Please give name of formatted atomic psp file
 iofn2 : for atom type 1, psp file is 14si.txt
  read the values zionpsp=  4.0 , pspcod=   1 , lmax=   2

 inpspheads: deduce mpsang = 3, n1xccc = 2501.

 invars1m : enter jdtset= 1
 invars1 : treat image number: 1

 symlatt : the Bravais lattice is cF (face-centered cubic)
  xred   is defined in input file
 ingeo : takes atomic coordinates from input array xred

 symlatt : the Bravais lattice is cF (face-centered cubic)

 symlatt : the Bravais lattice is cF (face-centered cubic)
 symspgr : spgroup= 227  Fd -3 m   (=Oh^7)
 ingeo : angdeg(1:3)=   60.00000000   60.00000000   60.00000000
       Simple Lattice Grid

 invars1m : enter jdtset= 2
 invars1 : treat image number: 1

 symlatt : the Bravais lattice is cF (face-centered cubic)
  xred   is defined in input file
 ingeo : takes atomic coordinates from input array xred

 symlatt : the Bravais lattice is cF (face-centered cubic)

 symlatt : the Bravais lattice is cF (face-centered cubic)
 symspgr : spgroup= 227  Fd -3 m   (=Oh^7)
 ingeo : angdeg(1:3)=   60.00000000   60.00000000   60.00000000
       Simple Lattice Grid

 invars1m : enter jdtset= 3
 invars1 : treat image number: 1

 symlatt : the Bravais lattice is cF (face-centered cubic)
  xred   is defined in input file
 ingeo : takes atomic coordinates from input array xred

 symlatt : the Bravais lattice is cF (face-centered cubic)

 symlatt : the Bravais lattice is cF (face-centered cubic)
 symspgr : spgroup= 227  Fd -3 m   (=Oh^7)
 ingeo : angdeg(1:3)=   60.00000000   60.00000000   60.00000000
       Simple Lattice Grid

 invars1m : enter jdtset= 4
 invars1 : treat image number: 1

 symlatt : the Bravais lattice is cF (face-centered cubic)
  xred   is defined in input file
 ingeo : takes atomic coordinates from input array xred

 symlatt : the Bravais lattice is cF (face-centered cubic)

 symlatt : the Bravais lattice is cF (face-centered cubic)
 symspgr : spgroup= 227  Fd -3 m   (=Oh^7)
 ingeo : angdeg(1:3)=   60.00000000   60.00000000   60.00000000
       Simple Lattice Grid

 invars1m : enter jdtset= 5
 invars1 : treat image number: 1

 symlatt : the Bravais lattice is cF (face-centered cubic)
  xred   is defined in input file
 ingeo : takes atomic coordinates from input array xred

 symlatt : the Bravais lattice is cF (face-centered cubic)

 symlatt : the Bravais lattice is cF (face-centered cubic)
 symspgr : spgroup= 227  Fd -3 m   (=Oh^7)
 ingeo : angdeg(1:3)=   60.00000000   60.00000000   60.00000000
       Simple Lattice Grid
 invars2: take the default value of fband=  1.25000000E-01
       Simple Lattice Grid
 
 invars2 : Printing the k point grid (values of kptns - max 100 of them)
 nkpt=       2
     ikpt istwfk    wtk       --------- reduced coordinates ---------  --------- cartesian coordinates ---------
       1     1  7.500000E-01 -2.500000E-01  5.000000E-01  0.000000E+00  7.367387E-02 -7.367387E-02  2.455796E-02
       2     1  2.500000E-01 -2.500000E-01  0.000000E+00  0.000000E+00  2.455796E-02 -2.455796E-02 -2.455796E-02
 
 invars2 : Printing the k point grid from kptrlatt, shifted with shiftk and qptn, in the full Brillouin zone.
   Maximum 100 of them. No use of symmetries
 nkpt_fullbz=      32
     ikpt      --------------- reduced coordinates ---------------  --------- cartesian coordinates ---------
       1      -2.5000000000E-01  5.0000000000E-01  0.0000000000E+00  7.367387E-02 -7.367387E-02  2.455796E-02
       2       5.0000000000E-01 -2.5000000000E-01  0.0000000000E+00 -7.367387E-02  7.367387E-02  2.455796E-02
       3      -2.5000000000E-01 -2.5000000000E-01  2.5000000000E-01  2.455796E-02  2.455796E-02 -7.367387E-02
       4      -2.5000000000E-01  0.0000000000E+00  0.0000000000E+00  2.455796E-02 -2.455796E-02 -2.455796E-02
       5       5.0000000000E-01  2.5000000000E-01  0.0000000000E+00 -2.455796E-02  2.455796E-02  7.367387E-02
       6      -2.5000000000E-01  2.5000000000E-01  2.5000000000E-01  7.367387E-02 -2.455796E-02 -2.455796E-02
       7       2.5000000000E-01  5.0000000000E-01  0.0000000000E+00  2.455796E-02 -2.455796E-02  7.367387E-02
       8       5.0000000000E-01  5.0000000000E-01  2.5000000000E-01  2.455796E-02  2.455796E-02  7.367387E-02
       9      -2.5000000000E-01  5.0000000000E-01  5.0000000000E-01  1.227898E-01 -2.455796E-02 -2.455796E-02
      10       0.0000000000E+00 -2.5000000000E-01  0.0000000000E+00 -2.455796E-02  2.455796E-02 -2.455796E-02
      11       2.5000000000E-01 -2.5000000000E-01  2.5000000000E-01 -2.455796E-02  7.367387E-02 -2.455796E-02
      12       5.0000000000E-01 -2.5000000000E-01  5.0000000000E-01 -2.455796E-02  1.227898E-01 -2.455796E-02
      13      -2.5000000000E-01 -2.5000000000E-01 -2.5000000000E-01 -2.455796E-02 -2.455796E-02 -2.455796E-02
      14       2.5000000000E-01  0.0000000000E+00  0.0000000000E+00 -2.455796E-02  2.455796E-02  2.455796E-02
      15       5.0000000000E-01  0.0000000000E+00  2.5000000000E-01 -2.455796E-02  7.367387E-02  2.455796E-02
      16      -2.5000000000E-01  0.0000000000E+00  5.0000000000E-01  7.367387E-02  2.455796E-02 -7.367387E-02
      17       0.0000000000E+00  2.5000000000E-01  0.0000000000E+00  2.455796E-02 -2.455796E-02  2.455796E-02
      18       2.5000000000E-01  2.5000000000E-01  2.5000000000E-01  2.455796E-02  2.455796E-02  2.455796E-02
      19       5.0000000000E-01  2.5000000000E-01  5.0000000000E-01  2.455796E-02  7.367387E-02  2.455796E-02
      20      -2.5000000000E-01  2.5000000000E-01 -2.5000000000E-01  2.455796E-02 -7.367387E-02  2.455796E-02
      21       0.0000000000E+00  5.0000000000E-01  2.5000000000E-01  7.367387E-02 -2.455796E-02  2.455796E-02
      22       2.5000000000E-01  5.0000000000E-01  5.0000000000E-01  7.367387E-02  2.455796E-02  2.455796E-02
      23       5.0000000000E-01  5.0000000000E-01 -2.5000000000E-01 -2.455796E-02 -2.455796E-02  1.227898E-01
      24       0.0000000000E+00 -2.5000000000E-01  5.0000000000E-01  2.455796E-02  7.367387E-02 -7.367387E-02
      25       2.5000000000E-01 -2.5000000000E-01 -2.5000000000E-01 -7.367387E-02  2.455796E-02  2.455796E-02
      26       0.0000000000E+00  0.0000000000E+00  2.5000000000E-01  2.455796E-02  2.455796E-02 -2.455796E-02
      27       2.5000000000E-01  0.0000000000E+00  5.0000000000E-01  2.455796E-02  7.367387E-02 -2.455796E-02
      28       5.0000000000E-01  0.0000000000E+00 -2.5000000000E-01 -7.367387E-02  2.455796E-02  7.367387E-02
      29       0.0000000000E+00  2.5000000000E-01  5.0000000000E-01  7.367387E-02  2.455796E-02 -2.455796E-02
      30       2.5000000000E-01  2.5000000000E-01 -2.5000000000E-01 -2.455796E-02 -2.455796E-02  7.367387E-02
      31       0.0000000000E+00  5.0000000000E-01 -2.5000000000E-01  2.455796E-02 -7.367387E-02  7.367387E-02
      32       0.0000000000E+00  0.0000000000E+00 -2.5000000000E-01 -2.455796E-02 -2.455796E-02  2.455796E-02
 

  chkneu : enter, dtset%nelect=   8.0000000000000000     
  occopt,dtset%nsppol,dtset%nspden=           1           1           1
  maxocc,nocc,occlast=   2.0000000000000000                4   2.0000000000000000     
 chkneu : initialized the occupation numbers for occopt=    1, spin-unpolarized or antiferromagnetic case :
  2.00  2.00  2.00  2.00  0.00
 invars2: take the default value of fband=  1.25000000E-01
       Simple Lattice Grid
 
 invars2 : Printing the k point grid (values of kptns - max 100 of them)
 nkpt=      28
     ikpt istwfk    wtk       --------- reduced coordinates ---------  --------- cartesian coordinates ---------
       1     1  2.777778E-02 -8.333333E-02 -1.666667E-01  0.000000E+00 -8.185986E-03  8.185986E-03 -2.455796E-02
       2     1  2.777778E-02 -8.333333E-02 -3.333333E-01  0.000000E+00 -2.455796E-02  2.455796E-02 -4.092993E-02
       3     1  2.777778E-02 -1.666667E-01 -2.500000E-01  0.000000E+00 -8.185986E-03  8.185986E-03 -4.092993E-02
       4     1  5.555556E-02 -8.333333E-02 -2.500000E-01  8.333333E-02 -8.185986E-03  2.455796E-02 -4.092993E-02
       5     1  2.777778E-02 -8.333333E-02  5.000000E-01  0.000000E+00  5.730190E-02 -5.730190E-02  4.092993E-02
       6     1  2.777778E-02 -1.666667E-01 -4.166667E-01  0.000000E+00 -2.455796E-02  2.455796E-02 -5.730190E-02
       7     1  5.555556E-02 -8.333333E-02 -4.166667E-01  8.333333E-02 -2.455796E-02  4.092993E-02 -5.730190E-02
       8     1  2.777778E-02 -2.500000E-01 -3.333333E-01  0.000000E+00 -8.185986E-03  8.185986E-03 -5.730190E-02
       9     1  5.555556E-02 -1.666667E-01 -3.333333E-01  8.333333E-02 -8.185986E-03  2.455796E-02 -5.730190E-02
      10     1  5.555556E-02 -8.333333E-02 -3.333333E-01  1.666667E-01 -8.185986E-03  4.092993E-02 -5.730190E-02
      11     1  2.777778E-02 -8.333333E-02  3.333333E-01  0.000000E+00  4.092993E-02 -4.092993E-02  2.455796E-02
      12     1  2.777778E-02 -1.666667E-01  4.166667E-01  0.000000E+00  5.730190E-02 -5.730190E-02  2.455796E-02
      13     1  2.777778E-02 -2.500000E-01  5.000000E-01  0.000000E+00  7.367387E-02 -7.367387E-02  2.455796E-02
      14     1  5.555556E-02 -1.666667E-01  5.000000E-01  8.333333E-02  7.367387E-02 -5.730190E-02  2.455796E-02
      15     1  2.777778E-02 -3.333333E-01 -4.166667E-01  0.000000E+00 -8.185986E-03  8.185986E-03 -7.367387E-02
      16     1  5.555556E-02 -2.500000E-01 -4.166667E-01  8.333333E-02 -8.185986E-03  2.455796E-02 -7.367387E-02
      17     1  5.555556E-02 -1.666667E-01 -4.166667E-01  1.666667E-01 -8.185986E-03  4.092993E-02 -7.367387E-02
      18     1  5.555556E-02 -8.333333E-02 -4.166667E-01  2.500000E-01 -8.185986E-03  5.730190E-02 -7.367387E-02
      19     1  2.777778E-02 -8.333333E-02  1.666667E-01  0.000000E+00  2.455796E-02 -2.455796E-02  8.185986E-03
      20     1  2.777778E-02 -1.666667E-01  2.500000E-01  0.000000E+00  4.092993E-02 -4.092993E-02  8.185986E-03
      21     1  2.777778E-02 -2.500000E-01  3.333333E-01  0.000000E+00  5.730190E-02 -5.730190E-02  8.185986E-03
      22     1  2.777778E-02 -3.333333E-01  4.166667E-01  0.000000E+00  7.367387E-02 -7.367387E-02  8.185986E-03
      23     1  2.777778E-02 -4.166667E-01  5.000000E-01  0.000000E+00  9.004584E-02 -9.004584E-02  8.185986E-03
      24     1  5.555556E-02 -3.333333E-01  5.000000E-01  8.333333E-02  9.004584E-02 -7.367387E-02  8.185986E-03
      25     1  5.555556E-02 -2.500000E-01  5.000000E-01  1.666667E-01  9.004584E-02 -5.730190E-02  8.185986E-03
      26     1  9.259259E-03 -8.333333E-02  0.000000E+00  0.000000E+00  8.185986E-03 -8.185986E-03 -8.185986E-03
      27     1  9.259259E-03 -2.500000E-01  0.000000E+00  0.000000E+00  2.455796E-02 -2.455796E-02 -2.455796E-02
      28     1  9.259259E-03 -4.166667E-01  0.000000E+00  0.000000E+00  4.092993E-02 -4.092993E-02 -4.092993E-02
 
 invars2 : Printing the k point grid from kptrlatt, shifted with shiftk and qptn, in the full Brillouin zone.
   Maximum 100 of them. No use of symmetries
 nkpt_fullbz=     864
     ikpt      --------------- reduced coordinates ---------------  --------- cartesian coordinates ---------
       1      -8.3333333333E-02 -1.6666666667E-01  0.0000000000E+00 -8.185986E-03  8.185986E-03 -2.455796E-02
       2      -1.6666666667E-01 -8.3333333333E-02  0.0000000000E+00  8.185986E-03 -8.185986E-03 -2.455796E-02
       3      -8.3333333333E-02 -8.3333333333E-02  8.3333333333E-02  8.185986E-03  8.185986E-03 -2.455796E-02
       4      -8.3333333333E-02 -3.3333333333E-01  0.0000000000E+00 -2.455796E-02  2.455796E-02 -4.092993E-02
       5      -1.6666666667E-01 -2.5000000000E-01  0.0000000000E+00 -8.185986E-03  8.185986E-03 -4.092993E-02
       6      -8.3333333333E-02 -2.5000000000E-01  8.3333333333E-02 -8.185986E-03  2.455796E-02 -4.092993E-02
       7      -2.5000000000E-01 -1.6666666667E-01  0.0000000000E+00  8.185986E-03 -8.185986E-03 -4.092993E-02
       8      -1.6666666667E-01 -1.6666666667E-01  8.3333333333E-02  8.185986E-03  8.185986E-03 -4.092993E-02
       9      -8.3333333333E-02 -1.6666666667E-01  1.6666666667E-01  8.185986E-03  2.455796E-02 -4.092993E-02
      10      -3.3333333333E-01 -8.3333333333E-02  0.0000000000E+00  2.455796E-02 -2.455796E-02 -4.092993E-02
      11      -2.5000000000E-01 -8.3333333333E-02  8.3333333333E-02  2.455796E-02 -8.185986E-03 -4.092993E-02
      12      -1.6666666667E-01 -8.3333333333E-02  1.6666666667E-01  2.455796E-02  8.185986E-03 -4.092993E-02
      13      -8.3333333333E-02 -8.3333333333E-02  2.5000000000E-01  2.455796E-02  2.455796E-02 -4.092993E-02
      14      -8.3333333333E-02  5.0000000000E-01  0.0000000000E+00  5.730190E-02 -5.730190E-02  4.092993E-02
      15      -1.6666666667E-01 -4.1666666667E-01  0.0000000000E+00 -2.455796E-02  2.455796E-02 -5.730190E-02
      16      -8.3333333333E-02 -4.1666666667E-01  8.3333333333E-02 -2.455796E-02  4.092993E-02 -5.730190E-02
      17      -2.5000000000E-01 -3.3333333333E-01  0.0000000000E+00 -8.185986E-03  8.185986E-03 -5.730190E-02
      18      -1.6666666667E-01 -3.3333333333E-01  8.3333333333E-02 -8.185986E-03  2.455796E-02 -5.730190E-02
      19      -8.3333333333E-02 -3.3333333333E-01  1.6666666667E-01 -8.185986E-03  4.092993E-02 -5.730190E-02
      20      -3.3333333333E-01 -2.5000000000E-01  0.0000000000E+00  8.185986E-03 -8.185986E-03 -5.730190E-02
      21      -2.5000000000E-01 -2.5000000000E-01  8.3333333333E-02  8.185986E-03  8.185986E-03 -5.730190E-02
      22      -1.6666666667E-01 -2.5000000000E-01  1.6666666667E-01  8.185986E-03  2.455796E-02 -5.730190E-02
      23      -8.3333333333E-02 -2.5000000000E-01  2.5000000000E-01  8.185986E-03  4.092993E-02 -5.730190E-02
      24      -4.1666666667E-01 -1.6666666667E-01  0.0000000000E+00  2.455796E-02 -2.455796E-02 -5.730190E-02
      25      -3.3333333333E-01 -1.6666666667E-01  8.3333333333E-02  2.455796E-02 -8.185986E-03 -5.730190E-02
      26      -2.5000000000E-01 -1.6666666667E-01  1.6666666667E-01  2.455796E-02  8.185986E-03 -5.730190E-02
      27      -1.6666666667E-01 -1.6666666667E-01  2.5000000000E-01  2.455796E-02  2.455796E-02 -5.730190E-02
      28      -8.3333333333E-02 -1.6666666667E-01  3.3333333333E-01  2.455796E-02  4.092993E-02 -5.730190E-02
      29       5.0000000000E-01 -8.3333333333E-02  0.0000000000E+00 -5.730190E-02  5.730190E-02  4.092993E-02
      30      -4.1666666667E-01 -8.3333333333E-02  8.3333333333E-02  4.092993E-02 -2.455796E-02 -5.730190E-02
      31      -3.3333333333E-01 -8.3333333333E-02  1.6666666667E-01  4.092993E-02 -8.185986E-03 -5.730190E-02
      32      -2.5000000000E-01 -8.3333333333E-02  2.5000000000E-01  4.092993E-02  8.185986E-03 -5.730190E-02
      33      -1.6666666667E-01 -8.3333333333E-02  3.3333333333E-01  4.092993E-02  2.455796E-02 -5.730190E-02
      34      -8.3333333333E-02 -8.3333333333E-02  4.1666666667E-01  4.092993E-02  4.092993E-02 -5.730190E-02
      35      -8.3333333333E-02  3.3333333333E-01  0.0000000000E+00  4.092993E-02 -4.092993E-02  2.455796E-02
      36      -1.6666666667E-01  4.1666666667E-01  0.0000000000E+00  5.730190E-02 -5.730190E-02  2.455796E-02
      37      -8.3333333333E-02  4.1666666667E-01  8.3333333333E-02  5.730190E-02 -4.092993E-02  2.455796E-02
      38      -2.5000000000E-01  5.0000000000E-01  0.0000000000E+00  7.367387E-02 -7.367387E-02  2.455796E-02
      39      -1.6666666667E-01  5.0000000000E-01  8.3333333333E-02  7.367387E-02 -5.730190E-02  2.455796E-02
      40      -8.3333333333E-02  5.0000000000E-01  1.6666666667E-01  7.367387E-02 -4.092993E-02  2.455796E-02
      41      -3.3333333333E-01 -4.1666666667E-01  0.0000000000E+00 -8.185986E-03  8.185986E-03 -7.367387E-02
      42      -2.5000000000E-01 -4.1666666667E-01  8.3333333333E-02 -8.185986E-03  2.455796E-02 -7.367387E-02
      43      -1.6666666667E-01 -4.1666666667E-01  1.6666666667E-01 -8.185986E-03  4.092993E-02 -7.367387E-02
      44      -8.3333333333E-02 -4.1666666667E-01  2.5000000000E-01 -8.185986E-03  5.730190E-02 -7.367387E-02
      45      -4.1666666667E-01 -3.3333333333E-01  0.0000000000E+00  8.185986E-03 -8.185986E-03 -7.367387E-02
      46      -3.3333333333E-01 -3.3333333333E-01  8.3333333333E-02  8.185986E-03  8.185986E-03 -7.367387E-02
      47      -2.5000000000E-01 -3.3333333333E-01  1.6666666667E-01  8.185986E-03  2.455796E-02 -7.367387E-02
      48      -1.6666666667E-01 -3.3333333333E-01  2.5000000000E-01  8.185986E-03  4.092993E-02 -7.367387E-02
      49      -8.3333333333E-02 -3.3333333333E-01  3.3333333333E-01  8.185986E-03  5.730190E-02 -7.367387E-02
      50       5.0000000000E-01 -2.5000000000E-01  0.0000000000E+00 -7.367387E-02  7.367387E-02  2.455796E-02
      51      -4.1666666667E-01 -2.5000000000E-01  8.3333333333E-02  2.455796E-02 -8.185986E-03 -7.367387E-02
      52      -3.3333333333E-01 -2.5000000000E-01  1.6666666667E-01  2.455796E-02  8.185986E-03 -7.367387E-02
      53      -2.5000000000E-01 -2.5000000000E-01  2.5000000000E-01  2.455796E-02  2.455796E-02 -7.367387E-02
      54      -1.6666666667E-01 -2.5000000000E-01  3.3333333333E-01  2.455796E-02  4.092993E-02 -7.367387E-02
      55      -8.3333333333E-02 -2.5000000000E-01  4.1666666667E-01  2.455796E-02  5.730190E-02 -7.367387E-02
      56       4.1666666667E-01 -1.6666666667E-01  0.0000000000E+00 -5.730190E-02  5.730190E-02  2.455796E-02
      57       5.0000000000E-01 -1.6666666667E-01  8.3333333333E-02 -5.730190E-02  7.367387E-02  2.455796E-02
      58      -4.1666666667E-01 -1.6666666667E-01  1.6666666667E-01  4.092993E-02 -8.185986E-03 -7.367387E-02
      59      -3.3333333333E-01 -1.6666666667E-01  2.5000000000E-01  4.092993E-02  8.185986E-03 -7.367387E-02
      60      -2.5000000000E-01 -1.6666666667E-01  3.3333333333E-01  4.092993E-02  2.455796E-02 -7.367387E-02
      61      -1.6666666667E-01 -1.6666666667E-01  4.1666666667E-01  4.092993E-02  4.092993E-02 -7.367387E-02
      62      -8.3333333333E-02 -1.6666666667E-01  5.0000000000E-01  4.092993E-02  5.730190E-02 -7.367387E-02
      63       3.3333333333E-01 -8.3333333333E-02  0.0000000000E+00 -4.092993E-02  4.092993E-02  2.455796E-02
      64       4.1666666667E-01 -8.3333333333E-02  8.3333333333E-02 -4.092993E-02  5.730190E-02  2.455796E-02
      65       5.0000000000E-01 -8.3333333333E-02  1.6666666667E-01 -4.092993E-02  7.367387E-02  2.455796E-02
      66      -4.1666666667E-01 -8.3333333333E-02  2.5000000000E-01  5.730190E-02 -8.185986E-03 -7.367387E-02
      67      -3.3333333333E-01 -8.3333333333E-02  3.3333333333E-01  5.730190E-02  8.185986E-03 -7.367387E-02
      68      -2.5000000000E-01 -8.3333333333E-02  4.1666666667E-01  5.730190E-02  2.455796E-02 -7.367387E-02
      69      -1.6666666667E-01 -8.3333333333E-02  5.0000000000E-01  5.730190E-02  4.092993E-02 -7.367387E-02
      70      -8.3333333333E-02 -8.3333333333E-02 -4.1666666667E-01 -4.092993E-02 -4.092993E-02  2.455796E-02
      71      -8.3333333333E-02  1.6666666667E-01  0.0000000000E+00  2.455796E-02 -2.455796E-02  8.185986E-03
      72      -1.6666666667E-01  2.5000000000E-01  0.0000000000E+00  4.092993E-02 -4.092993E-02  8.185986E-03
      73      -8.3333333333E-02  2.5000000000E-01  8.3333333333E-02  4.092993E-02 -2.455796E-02  8.185986E-03
      74      -2.5000000000E-01  3.3333333333E-01  0.0000000000E+00  5.730190E-02 -5.730190E-02  8.185986E-03
      75      -1.6666666667E-01  3.3333333333E-01  8.3333333333E-02  5.730190E-02 -4.092993E-02  8.185986E-03
      76      -8.3333333333E-02  3.3333333333E-01  1.6666666667E-01  5.730190E-02 -2.455796E-02  8.185986E-03
      77      -3.3333333333E-01  4.1666666667E-01  0.0000000000E+00  7.367387E-02 -7.367387E-02  8.185986E-03
      78      -2.5000000000E-01  4.1666666667E-01  8.3333333333E-02  7.367387E-02 -5.730190E-02  8.185986E-03
      79      -1.6666666667E-01  4.1666666667E-01  1.6666666667E-01  7.367387E-02 -4.092993E-02  8.185986E-03
      80      -8.3333333333E-02  4.1666666667E-01  2.5000000000E-01  7.367387E-02 -2.455796E-02  8.185986E-03
      81      -4.1666666667E-01  5.0000000000E-01  0.0000000000E+00  9.004584E-02 -9.004584E-02  8.185986E-03
      82      -3.3333333333E-01  5.0000000000E-01  8.3333333333E-02  9.004584E-02 -7.367387E-02  8.185986E-03
      83      -2.5000000000E-01  5.0000000000E-01  1.6666666667E-01  9.004584E-02 -5.730190E-02  8.185986E-03
      84      -1.6666666667E-01  5.0000000000E-01  2.5000000000E-01  9.004584E-02 -4.092993E-02  8.185986E-03
      85      -8.3333333333E-02  5.0000000000E-01  3.3333333333E-01  9.004584E-02 -2.455796E-02  8.185986E-03
      86       5.0000000000E-01 -4.1666666667E-01  0.0000000000E+00 -9.004584E-02  9.004584E-02  8.185986E-03
      87      -4.1666666667E-01 -4.1666666667E-01  8.3333333333E-02  8.185986E-03  8.185986E-03 -9.004584E-02
      88      -3.3333333333E-01 -4.1666666667E-01  1.6666666667E-01  8.185986E-03  2.455796E-02 -9.004584E-02
      89      -2.5000000000E-01 -4.1666666667E-01  2.5000000000E-01  8.185986E-03  4.092993E-02 -9.004584E-02
      90      -1.6666666667E-01 -4.1666666667E-01  3.3333333333E-01  8.185986E-03  5.730190E-02 -9.004584E-02
      91      -8.3333333333E-02 -4.1666666667E-01  4.1666666667E-01  8.185986E-03  7.367387E-02 -9.004584E-02
      92       4.1666666667E-01 -3.3333333333E-01  0.0000000000E+00 -7.367387E-02  7.367387E-02  8.185986E-03
      93       5.0000000000E-01 -3.3333333333E-01  8.3333333333E-02 -7.367387E-02  9.004584E-02  8.185986E-03
      94      -4.1666666667E-01 -3.3333333333E-01  1.6666666667E-01  2.455796E-02  8.185986E-03 -9.004584E-02
      95      -3.3333333333E-01 -3.3333333333E-01  2.5000000000E-01  2.455796E-02  2.455796E-02 -9.004584E-02
      96      -2.5000000000E-01 -3.3333333333E-01  3.3333333333E-01  2.455796E-02  4.092993E-02 -9.004584E-02
      97      -1.6666666667E-01 -3.3333333333E-01  4.1666666667E-01  2.455796E-02  5.730190E-02 -9.004584E-02
      98      -8.3333333333E-02 -3.3333333333E-01  5.0000000000E-01  2.455796E-02  7.367387E-02 -9.004584E-02
      99       3.3333333333E-01 -2.5000000000E-01  0.0000000000E+00 -5.730190E-02  5.730190E-02  8.185986E-03
     100       4.1666666667E-01 -2.5000000000E-01  8.3333333333E-02 -5.730190E-02  7.367387E-02  8.185986E-03
 

  chkneu : enter, dtset%nelect=   8.0000000000000000     
  occopt,dtset%nsppol,dtset%nspden=           1           1           1
  maxocc,nocc,occlast=   2.0000000000000000                4   2.0000000000000000     
 chkneu : initialized the occupation numbers for occopt=    1, spin-unpolarized or antiferromagnetic case :
  2.00  2.00  2.00  2.00  0.00
 invars2: take the default value of fband=  1.25000000E-01
       Simple Lattice Grid
 
 invars2 : Printing the k point grid (values of kptns - max 100 of them)
 nkpt=      60
     ikpt istwfk    wtk       --------- reduced coordinates ---------  --------- cartesian coordinates ---------
       1     1  1.171875E-02 -6.250000E-02 -1.250000E-01  0.000000E+00 -6.139489E-03  6.139489E-03 -1.841847E-02
       2     1  1.171875E-02 -6.250000E-02 -2.500000E-01  0.000000E+00 -1.841847E-02  1.841847E-02 -3.069745E-02
       3     1  1.171875E-02 -1.250000E-01 -1.875000E-01  0.000000E+00 -6.139489E-03  6.139489E-03 -3.069745E-02
       4     1  2.343750E-02 -6.250000E-02 -1.875000E-01  6.250000E-02 -6.139489E-03  1.841847E-02 -3.069745E-02
       5     1  1.171875E-02 -6.250000E-02 -3.750000E-01  0.000000E+00 -3.069745E-02  3.069745E-02 -4.297642E-02
       6     1  1.171875E-02 -1.250000E-01 -3.125000E-01  0.000000E+00 -1.841847E-02  1.841847E-02 -4.297642E-02
       7     1  2.343750E-02 -6.250000E-02 -3.125000E-01  6.250000E-02 -1.841847E-02  3.069745E-02 -4.297642E-02
       8     1  1.171875E-02 -1.875000E-01 -2.500000E-01  0.000000E+00 -6.139489E-03  6.139489E-03 -4.297642E-02
       9     1  2.343750E-02 -1.250000E-01 -2.500000E-01  6.250000E-02 -6.139489E-03  1.841847E-02 -4.297642E-02
      10     1  2.343750E-02 -6.250000E-02 -2.500000E-01  1.250000E-01 -6.139489E-03  3.069745E-02 -4.297642E-02
      11     1  1.171875E-02 -6.250000E-02  5.000000E-01  0.000000E+00  5.525540E-02 -5.525540E-02  4.297642E-02
      12     1  1.171875E-02 -1.250000E-01 -4.375000E-01  0.000000E+00 -3.069745E-02  3.069745E-02 -5.525540E-02
      13     1  2.343750E-02 -6.250000E-02 -4.375000E-01  6.250000E-02 -3.069745E-02  4.297642E-02 -5.525540E-02
      14     1  1.171875E-02 -1.875000E-01 -3.750000E-01  0.000000E+00 -1.841847E-02  1.841847E-02 -5.525540E-02
      15     1  2.343750E-02 -1.250000E-01 -3.750000E-01  6.250000E-02 -1.841847E-02  3.069745E-02 -5.525540E-02
      16     1  2.343750E-02 -6.250000E-02 -3.750000E-01  1.250000E-01 -1.841847E-02  4.297642E-02 -5.525540E-02
      17     1  1.171875E-02 -2.500000E-01 -3.125000E-01  0.000000E+00 -6.139489E-03  6.139489E-03 -5.525540E-02
      18     1  2.343750E-02 -1.875000E-01 -3.125000E-01  6.250000E-02 -6.139489E-03  1.841847E-02 -5.525540E-02
      19     1  2.343750E-02 -1.250000E-01 -3.125000E-01  1.250000E-01 -6.139489E-03  3.069745E-02 -5.525540E-02
      20     1  2.343750E-02 -6.250000E-02 -3.125000E-01  1.875000E-01 -6.139489E-03  4.297642E-02 -5.525540E-02
      21     1  1.171875E-02 -6.250000E-02  3.750000E-01  0.000000E+00  4.297642E-02 -4.297642E-02  3.069745E-02
      22     1  1.171875E-02 -1.250000E-01  4.375000E-01  0.000000E+00  5.525540E-02 -5.525540E-02  3.069745E-02
      23     1  1.171875E-02 -1.875000E-01  5.000000E-01  0.000000E+00  6.753438E-02 -6.753438E-02  3.069745E-02
      24     1  2.343750E-02 -1.250000E-01  5.000000E-01  6.250000E-02  6.753438E-02 -5.525540E-02  3.069745E-02
      25     1  1.171875E-02 -2.500000E-01 -4.375000E-01  0.000000E+00 -1.841847E-02  1.841847E-02 -6.753438E-02
      26     1  2.343750E-02 -1.875000E-01 -4.375000E-01  6.250000E-02 -1.841847E-02  3.069745E-02 -6.753438E-02
      27     1  2.343750E-02 -1.250000E-01 -4.375000E-01  1.250000E-01 -1.841847E-02  4.297642E-02 -6.753438E-02
      28     1  2.343750E-02 -6.250000E-02 -4.375000E-01  1.875000E-01 -1.841847E-02  5.525540E-02 -6.753438E-02
      29     1  1.171875E-02 -3.125000E-01 -3.750000E-01  0.000000E+00 -6.139489E-03  6.139489E-03 -6.753438E-02
      30     1  2.343750E-02 -2.500000E-01 -3.750000E-01  6.250000E-02 -6.139489E-03  1.841847E-02 -6.753438E-02
      31     1  2.343750E-02 -1.875000E-01 -3.750000E-01  1.250000E-01 -6.139489E-03  3.069745E-02 -6.753438E-02
      32     1  2.343750E-02 -1.250000E-01 -3.750000E-01  1.875000E-01 -6.139489E-03  4.297642E-02 -6.753438E-02
      33     1  2.343750E-02 -6.250000E-02 -3.750000E-01  2.500000E-01 -6.139489E-03  5.525540E-02 -6.753438E-02
      34     1  1.171875E-02 -6.250000E-02  2.500000E-01  0.000000E+00  3.069745E-02 -3.069745E-02  1.841847E-02
      35     1  1.171875E-02 -1.250000E-01  3.125000E-01  0.000000E+00  4.297642E-02 -4.297642E-02  1.841847E-02
      36     1  1.171875E-02 -1.875000E-01  3.750000E-01  0.000000E+00  5.525540E-02 -5.525540E-02  1.841847E-02
      37     1  1.171875E-02 -2.500000E-01  4.375000E-01  0.000000E+00  6.753438E-02 -6.753438E-02  1.841847E-02
      38     1  1.171875E-02 -3.125000E-01  5.000000E-01  0.000000E+00  7.981336E-02 -7.981336E-02  1.841847E-02
      39     1  2.343750E-02 -2.500000E-01  5.000000E-01  6.250000E-02  7.981336E-02 -6.753438E-02  1.841847E-02
      40     1  2.343750E-02 -1.875000E-01  5.000000E-01  1.250000E-01  7.981336E-02 -5.525540E-02  1.841847E-02
      41     1  1.171875E-02 -3.750000E-01 -4.375000E-01  0.000000E+00 -6.139489E-03  6.139489E-03 -7.981336E-02
      42     1  2.343750E-02 -3.125000E-01 -4.375000E-01  6.250000E-02 -6.139489E-03  1.841847E-02 -7.981336E-02
      43     1  2.343750E-02 -2.500000E-01 -4.375000E-01  1.250000E-01 -6.139489E-03  3.069745E-02 -7.981336E-02
      44     1  2.343750E-02 -1.875000E-01 -4.375000E-01  1.875000E-01 -6.139489E-03  4.297642E-02 -7.981336E-02
      45     1  2.343750E-02 -1.250000E-01 -4.375000E-01  2.500000E-01 -6.139489E-03  5.525540E-02 -7.981336E-02
      46     1  2.343750E-02 -6.250000E-02 -4.375000E-01  3.125000E-01 -6.139489E-03  6.753438E-02 -7.981336E-02
      47     1  1.171875E-02 -6.250000E-02  1.250000E-01  0.000000E+00  1.841847E-02 -1.841847E-02  6.139489E-03
      48     1  1.171875E-02 -1.250000E-01  1.875000E-01  0.000000E+00  3.069745E-02 -3.069745E-02  6.139489E-03
      49     1  1.171875E-02 -1.875000E-01  2.500000E-01  0.000000E+00  4.297642E-02 -4.297642E-02  6.139489E-03
      50     1  1.171875E-02 -2.500000E-01  3.125000E-01  0.000000E+00  5.525540E-02 -5.525540E-02  6.139489E-03
      51     1  1.171875E-02 -3.125000E-01  3.750000E-01  0.000000E+00  6.753438E-02 -6.753438E-02  6.139489E-03
      52     1  1.171875E-02 -3.750000E-01  4.375000E-01  0.000000E+00  7.981336E-02 -7.981336E-02  6.139489E-03
      53     1  1.171875E-02 -4.375000E-01  5.000000E-01  0.000000E+00  9.209234E-02 -9.209234E-02  6.139489E-03
      54     1  2.343750E-02 -3.750000E-01  5.000000E-01  6.250000E-02  9.209234E-02 -7.981336E-02  6.139489E-03
      55     1  2.343750E-02 -3.125000E-01  5.000000E-01  1.250000E-01  9.209234E-02 -6.753438E-02  6.139489E-03
      56     1  2.343750E-02 -2.500000E-01  5.000000E-01  1.875000E-01  9.209234E-02 -5.525540E-02  6.139489E-03
      57     1  3.906250E-03 -6.250000E-02  0.000000E+00  0.000000E+00  6.139489E-03 -6.139489E-03 -6.139489E-03
      58     1  3.906250E-03 -1.875000E-01  0.000000E+00  0.000000E+00  1.841847E-02 -1.841847E-02 -1.841847E-02
      59     1  3.906250E-03 -3.125000E-01  0.000000E+00  0.000000E+00  3.069745E-02 -3.069745E-02 -3.069745E-02
      60     1  3.906250E-03 -4.375000E-01  0.000000E+00  0.000000E+00  4.297642E-02 -4.297642E-02 -4.297642E-02
 
 invars2 : Printing the k point grid from kptrlatt, shifted with shiftk and qptn, in the full Brillouin zone.
   Maximum 100 of them. No use of symmetries
 nkpt_fullbz=    2048
     ikpt      --------------- reduced coordinates ---------------  --------- cartesian coordinates ---------
       1      -6.2500000000E-02 -1.2500000000E-01  0.0000000000E+00 -6.139489E-03  6.139489E-03 -1.841847E-02
       2      -1.2500000000E-01 -6.2500000000E-02  0.0000000000E+00  6.139489E-03 -6.139489E-03 -1.841847E-02
       3      -6.2500000000E-02 -6.2500000000E-02  6.2500000000E-02  6.139489E-03  6.139489E-03 -1.841847E-02
       4      -6.2500000000E-02 -2.5000000000E-01  0.0000000000E+00 -1.841847E-02  1.841847E-02 -3.069745E-02
       5      -1.2500000000E-01 -1.8750000000E-01  0.0000000000E+00 -6.139489E-03  6.139489E-03 -3.069745E-02
       6      -6.2500000000E-02 -1.8750000000E-01  6.2500000000E-02 -6.139489E-03  1.841847E-02 -3.069745E-02
       7      -1.8750000000E-01 -1.2500000000E-01  0.0000000000E+00  6.139489E-03 -6.139489E-03 -3.069745E-02
       8      -1.2500000000E-01 -1.2500000000E-01  6.2500000000E-02  6.139489E-03  6.139489E-03 -3.069745E-02
       9      -6.2500000000E-02 -1.2500000000E-01  1.2500000000E-01  6.139489E-03  1.841847E-02 -3.069745E-02
      10      -2.5000000000E-01 -6.2500000000E-02  0.0000000000E+00  1.841847E-02 -1.841847E-02 -3.069745E-02
      11      -1.8750000000E-01 -6.2500000000E-02  6.2500000000E-02  1.841847E-02 -6.139489E-03 -3.069745E-02
      12      -1.2500000000E-01 -6.2500000000E-02  1.2500000000E-01  1.841847E-02  6.139489E-03 -3.069745E-02
      13      -6.2500000000E-02 -6.2500000000E-02  1.8750000000E-01  1.841847E-02  1.841847E-02 -3.069745E-02
      14      -6.2500000000E-02 -3.7500000000E-01  0.0000000000E+00 -3.069745E-02  3.069745E-02 -4.297642E-02
      15      -1.2500000000E-01 -3.1250000000E-01  0.0000000000E+00 -1.841847E-02  1.841847E-02 -4.297642E-02
      16      -6.2500000000E-02 -3.1250000000E-01  6.2500000000E-02 -1.841847E-02  3.069745E-02 -4.297642E-02
      17      -1.8750000000E-01 -2.5000000000E-01  0.0000000000E+00 -6.139489E-03  6.139489E-03 -4.297642E-02
      18      -1.2500000000E-01 -2.5000000000E-01  6.2500000000E-02 -6.139489E-03  1.841847E-02 -4.297642E-02
      19      -6.2500000000E-02 -2.5000000000E-01  1.2500000000E-01 -6.139489E-03  3.069745E-02 -4.297642E-02
      20      -2.5000000000E-01 -1.8750000000E-01  0.0000000000E+00  6.139489E-03 -6.139489E-03 -4.297642E-02
      21      -1.8750000000E-01 -1.8750000000E-01  6.2500000000E-02  6.139489E-03  6.139489E-03 -4.297642E-02
      22      -1.2500000000E-01 -1.8750000000E-01  1.2500000000E-01  6.139489E-03  1.841847E-02 -4.297642E-02
      23      -6.2500000000E-02 -1.8750000000E-01  1.8750000000E-01  6.139489E-03  3.069745E-02 -4.297642E-02
      24      -3.1250000000E-01 -1.2500000000E-01  0.0000000000E+00  1.841847E-02 -1.841847E-02 -4.297642E-02
      25      -2.5000000000E-01 -1.2500000000E-01  6.2500000000E-02  1.841847E-02 -6.139489E-03 -4.297642E-02
      26      -1.8750000000E-01 -1.2500000000E-01  1.2500000000E-01  1.841847E-02  6.139489E-03 -4.297642E-02
      27      -1.2500000000E-01 -1.2500000000E-01  1.8750000000E-01  1.841847E-02  1.841847E-02 -4.297642E-02
      28      -6.2500000000E-02 -1.2500000000E-01  2.5000000000E-01  1.841847E-02  3.069745E-02 -4.297642E-02
      29      -3.7500000000E-01 -6.2500000000E-02  0.0000000000E+00  3.069745E-02 -3.069745E-02 -4.297642E-02
      30      -3.1250000000E-01 -6.2500000000E-02  6.2500000000E-02  3.069745E-02 -1.841847E-02 -4.297642E-02
      31      -2.5000000000E-01 -6.2500000000E-02  1.2500000000E-01  3.069745E-02 -6.139489E-03 -4.297642E-02
      32      -1.8750000000E-01 -6.2500000000E-02  1.8750000000E-01  3.069745E-02  6.139489E-03 -4.297642E-02
      33      -1.2500000000E-01 -6.2500000000E-02  2.5000000000E-01  3.069745E-02  1.841847E-02 -4.297642E-02
      34      -6.2500000000E-02 -6.2500000000E-02  3.1250000000E-01  3.069745E-02  3.069745E-02 -4.297642E-02
      35      -6.2500000000E-02  5.0000000000E-01  0.0000000000E+00  5.525540E-02 -5.525540E-02  4.297642E-02
      36      -1.2500000000E-01 -4.3750000000E-01  0.0000000000E+00 -3.069745E-02  3.069745E-02 -5.525540E-02
      37      -6.2500000000E-02 -4.3750000000E-01  6.2500000000E-02 -3.069745E-02  4.297642E-02 -5.525540E-02
      38      -1.8750000000E-01 -3.7500000000E-01  0.0000000000E+00 -1.841847E-02  1.841847E-02 -5.525540E-02
      39      -1.2500000000E-01 -3.7500000000E-01  6.2500000000E-02 -1.841847E-02  3.069745E-02 -5.525540E-02
      40      -6.2500000000E-02 -3.7500000000E-01  1.2500000000E-01 -1.841847E-02  4.297642E-02 -5.525540E-02
      41      -2.5000000000E-01 -3.1250000000E-01  0.0000000000E+00 -6.139489E-03  6.139489E-03 -5.525540E-02
      42      -1.8750000000E-01 -3.1250000000E-01  6.2500000000E-02 -6.139489E-03  1.841847E-02 -5.525540E-02
      43      -1.2500000000E-01 -3.1250000000E-01  1.2500000000E-01 -6.139489E-03  3.069745E-02 -5.525540E-02
      44      -6.2500000000E-02 -3.1250000000E-01  1.8750000000E-01 -6.139489E-03  4.297642E-02 -5.525540E-02
      45      -3.1250000000E-01 -2.5000000000E-01  0.0000000000E+00  6.139489E-03 -6.139489E-03 -5.525540E-02
      46      -2.5000000000E-01 -2.5000000000E-01  6.2500000000E-02  6.139489E-03  6.139489E-03 -5.525540E-02
      47      -1.8750000000E-01 -2.5000000000E-01  1.2500000000E-01  6.139489E-03  1.841847E-02 -5.525540E-02
      48      -1.2500000000E-01 -2.5000000000E-01  1.8750000000E-01  6.139489E-03  3.069745E-02 -5.525540E-02
      49      -6.2500000000E-02 -2.5000000000E-01  2.5000000000E-01  6.139489E-03  4.297642E-02 -5.525540E-02
      50      -3.7500000000E-01 -1.8750000000E-01  0.0000000000E+00  1.841847E-02 -1.841847E-02 -5.525540E-02
      51      -3.1250000000E-01 -1.8750000000E-01  6.2500000000E-02  1.841847E-02 -6.139489E-03 -5.525540E-02
      52      -2.5000000000E-01 -1.8750000000E-01  1.2500000000E-01  1.841847E-02  6.139489E-03 -5.525540E-02
      53      -1.8750000000E-01 -1.8750000000E-01  1.8750000000E-01  1.841847E-02  1.841847E-02 -5.525540E-02
      54      -1.2500000000E-01 -1.8750000000E-01  2.5000000000E-01  1.841847E-02  3.069745E-02 -5.525540E-02
      55      -6.2500000000E-02 -1.8750000000E-01  3.1250000000E-01  1.841847E-02  4.297642E-02 -5.525540E-02
      56      -4.3750000000E-01 -1.2500000000E-01  0.0000000000E+00  3.069745E-02 -3.069745E-02 -5.525540E-02
      57      -3.7500000000E-01 -1.2500000000E-01  6.2500000000E-02  3.069745E-02 -1.841847E-02 -5.525540E-02
      58      -3.1250000000E-01 -1.2500000000E-01  1.2500000000E-01  3.069745E-02 -6.139489E-03 -5.525540E-02
      59      -2.5000000000E-01 -1.2500000000E-01  1.8750000000E-01  3.069745E-02  6.139489E-03 -5.525540E-02
      60      -1.8750000000E-01 -1.2500000000E-01  2.5000000000E-01  3.069745E-02  1.841847E-02 -5.525540E-02
      61      -1.2500000000E-01 -1.2500000000E-01  3.1250000000E-01  3.069745E-02  3.069745E-02 -5.525540E-02
      62      -6.2500000000E-02 -1.2500000000E-01  3.7500000000E-01  3.069745E-02  4.297642E-02 -5.525540E-02
      63       5.0000000000E-01 -6.2500000000E-02  0.0000000000E+00 -5.525540E-02  5.525540E-02  4.297642E-02
      64      -4.3750000000E-01 -6.2500000000E-02  6.2500000000E-02  4.297642E-02 -3.069745E-02 -5.525540E-02
      65      -3.7500000000E-01 -6.2500000000E-02  1.2500000000E-01  4.297642E-02 -1.841847E-02 -5.525540E-02
      66      -3.1250000000E-01 -6.2500000000E-02  1.8750000000E-01  4.297642E-02 -6.139489E-03 -5.525540E-02
      67      -2.5000000000E-01 -6.2500000000E-02  2.5000000000E-01  4.297642E-02  6.139489E-03 -5.525540E-02
      68      -1.8750000000E-01 -6.2500000000E-02  3.1250000000E-01  4.297642E-02  1.841847E-02 -5.525540E-02
      69      -1.2500000000E-01 -6.2500000000E-02  3.7500000000E-01  4.297642E-02  3.069745E-02 -5.525540E-02
      70      -6.2500000000E-02 -6.2500000000E-02  4.3750000000E-01  4.297642E-02  4.297642E-02 -5.525540E-02
      71      -6.2500000000E-02  3.7500000000E-01  0.0000000000E+00  4.297642E-02 -4.297642E-02  3.069745E-02
      72      -1.2500000000E-01  4.3750000000E-01  0.0000000000E+00  5.525540E-02 -5.525540E-02  3.069745E-02
      73      -6.2500000000E-02  4.3750000000E-01  6.2500000000E-02  5.525540E-02 -4.297642E-02  3.069745E-02
      74      -1.8750000000E-01  5.0000000000E-01  0.0000000000E+00  6.753438E-02 -6.753438E-02  3.069745E-02
      75      -1.2500000000E-01  5.0000000000E-01  6.2500000000E-02  6.753438E-02 -5.525540E-02  3.069745E-02
      76      -6.2500000000E-02  5.0000000000E-01  1.2500000000E-01  6.753438E-02 -4.297642E-02  3.069745E-02
      77      -2.5000000000E-01 -4.3750000000E-01  0.0000000000E+00 -1.841847E-02  1.841847E-02 -6.753438E-02
      78      -1.8750000000E-01 -4.3750000000E-01  6.2500000000E-02 -1.841847E-02  3.069745E-02 -6.753438E-02
      79      -1.2500000000E-01 -4.3750000000E-01  1.2500000000E-01 -1.841847E-02  4.297642E-02 -6.753438E-02
      80      -6.2500000000E-02 -4.3750000000E-01  1.8750000000E-01 -1.841847E-02  5.525540E-02 -6.753438E-02
      81      -3.1250000000E-01 -3.7500000000E-01  0.0000000000E+00 -6.139489E-03  6.139489E-03 -6.753438E-02
      82      -2.5000000000E-01 -3.7500000000E-01  6.2500000000E-02 -6.139489E-03  1.841847E-02 -6.753438E-02
      83      -1.8750000000E-01 -3.7500000000E-01  1.2500000000E-01 -6.139489E-03  3.069745E-02 -6.753438E-02
      84      -1.2500000000E-01 -3.7500000000E-01  1.8750000000E-01 -6.139489E-03  4.297642E-02 -6.753438E-02
      85      -6.2500000000E-02 -3.7500000000E-01  2.5000000000E-01 -6.139489E-03  5.525540E-02 -6.753438E-02
      86      -3.7500000000E-01 -3.1250000000E-01  0.0000000000E+00  6.139489E-03 -6.139489E-03 -6.753438E-02
      87      -3.1250000000E-01 -3.1250000000E-01  6.2500000000E-02  6.139489E-03  6.139489E-03 -6.753438E-02
      88      -2.5000000000E-01 -3.1250000000E-01  1.2500000000E-01  6.139489E-03  1.841847E-02 -6.753438E-02
      89      -1.8750000000E-01 -3.1250000000E-01  1.8750000000E-01  6.139489E-03  3.069745E-02 -6.753438E-02
      90      -1.2500000000E-01 -3.1250000000E-01  2.5000000000E-01  6.139489E-03  4.297642E-02 -6.753438E-02
      91      -6.2500000000E-02 -3.1250000000E-01  3.1250000000E-01  6.139489E-03  5.525540E-02 -6.753438E-02
      92      -4.3750000000E-01 -2.5000000000E-01  0.0000000000E+00  1.841847E-02 -1.841847E-02 -6.753438E-02
      93      -3.7500000000E-01 -2.5000000000E-01  6.2500000000E-02  1.841847E-02 -6.139489E-03 -6.753438E-02
      94      -3.1250000000E-01 -2.5000000000E-01  1.2500000000E-01  1.841847E-02  6.139489E-03 -6.753438E-02
      95      -2.5000000000E-01 -2.5000000000E-01  1.8750000000E-01  1.841847E-02  1.841847E-02 -6.753438E-02
      96      -1.8750000000E-01 -2.5000000000E-01  2.5000000000E-01  1.841847E-02  3.069745E-02 -6.753438E-02
      97      -1.2500000000E-01 -2.5000000000E-01  3.1250000000E-01  1.841847E-02  4.297642E-02 -6.753438E-02
      98      -6.2500000000E-02 -2.5000000000E-01  3.7500000000E-01  1.841847E-02  5.525540E-02 -6.753438E-02
      99       5.0000000000E-01 -1.8750000000E-01  0.0000000000E+00 -6.753438E-02  6.753438E-02  3.069745E-02
     100      -4.3750000000E-01 -1.8750000000E-01  6.2500000000E-02  3.069745E-02 -1.841847E-02 -6.753438E-02
 

  chkneu : enter, dtset%nelect=   8.0000000000000000     
  occopt,dtset%nsppol,dtset%nspden=           1           1           1
  maxocc,nocc,occlast=   2.0000000000000000                4   2.0000000000000000     
 chkneu : initialized the occupation numbers for occopt=    1, spin-unpolarized or antiferromagnetic case :
  2.00  2.00  2.00  2.00  0.00
 invars2: take the default value of fband=  1.25000000E-01
       Simple Lattice Grid
 
 invars2 : Printing the k point grid (values of kptns - max 100 of them)
 nkpt=     110
     ikpt istwfk    wtk       --------- reduced coordinates ---------  --------- cartesian coordinates ---------
       1     1  6.000000E-03 -5.000000E-02 -1.000000E-01  0.000000E+00 -4.911591E-03  4.911591E-03 -1.473477E-02
       2     1  6.000000E-03 -5.000000E-02 -2.000000E-01  0.000000E+00 -1.473477E-02  1.473477E-02 -2.455796E-02
       3     1  6.000000E-03 -1.000000E-01 -1.500000E-01  0.000000E+00 -4.911591E-03  4.911591E-03 -2.455796E-02
       4     1  1.200000E-02 -5.000000E-02 -1.500000E-01  5.000000E-02 -4.911591E-03  1.473477E-02 -2.455796E-02
       5     1  6.000000E-03 -5.000000E-02 -3.000000E-01  0.000000E+00 -2.455796E-02  2.455796E-02 -3.438114E-02
       6     1  6.000000E-03 -1.000000E-01 -2.500000E-01  0.000000E+00 -1.473477E-02  1.473477E-02 -3.438114E-02
       7     1  1.200000E-02 -5.000000E-02 -2.500000E-01  5.000000E-02 -1.473477E-02  2.455796E-02 -3.438114E-02
       8     1  6.000000E-03 -1.500000E-01 -2.000000E-01  0.000000E+00 -4.911591E-03  4.911591E-03 -3.438114E-02
       9     1  1.200000E-02 -1.000000E-01 -2.000000E-01  5.000000E-02 -4.911591E-03  1.473477E-02 -3.438114E-02
      10     1  1.200000E-02 -5.000000E-02 -2.000000E-01  1.000000E-01 -4.911591E-03  2.455796E-02 -3.438114E-02
      11     1  6.000000E-03 -5.000000E-02 -4.000000E-01  0.000000E+00 -3.438114E-02  3.438114E-02 -4.420432E-02
      12     1  6.000000E-03 -1.000000E-01 -3.500000E-01  0.000000E+00 -2.455796E-02  2.455796E-02 -4.420432E-02
      13     1  1.200000E-02 -5.000000E-02 -3.500000E-01  5.000000E-02 -2.455796E-02  3.438114E-02 -4.420432E-02
      14     1  6.000000E-03 -1.500000E-01 -3.000000E-01  0.000000E+00 -1.473477E-02  1.473477E-02 -4.420432E-02
      15     1  1.200000E-02 -1.000000E-01 -3.000000E-01  5.000000E-02 -1.473477E-02  2.455796E-02 -4.420432E-02
      16     1  1.200000E-02 -5.000000E-02 -3.000000E-01  1.000000E-01 -1.473477E-02  3.438114E-02 -4.420432E-02
      17     1  6.000000E-03 -2.000000E-01 -2.500000E-01  0.000000E+00 -4.911591E-03  4.911591E-03 -4.420432E-02
      18     1  1.200000E-02 -1.500000E-01 -2.500000E-01  5.000000E-02 -4.911591E-03  1.473477E-02 -4.420432E-02
      19     1  1.200000E-02 -1.000000E-01 -2.500000E-01  1.000000E-01 -4.911591E-03  2.455796E-02 -4.420432E-02
      20     1  1.200000E-02 -5.000000E-02 -2.500000E-01  1.500000E-01 -4.911591E-03  3.438114E-02 -4.420432E-02
      21     1  6.000000E-03 -5.000000E-02  5.000000E-01  0.000000E+00  5.402750E-02 -5.402750E-02  4.420432E-02
      22     1  6.000000E-03 -1.000000E-01 -4.500000E-01  0.000000E+00 -3.438114E-02  3.438114E-02 -5.402750E-02
      23     1  1.200000E-02 -5.000000E-02 -4.500000E-01  5.000000E-02 -3.438114E-02  4.420432E-02 -5.402750E-02
      24     1  6.000000E-03 -1.500000E-01 -4.000000E-01  0.000000E+00 -2.455796E-02  2.455796E-02 -5.402750E-02
      25     1  1.200000E-02 -1.000000E-01 -4.000000E-01  5.000000E-02 -2.455796E-02  3.438114E-02 -5.402750E-02
      26     1  1.200000E-02 -5.000000E-02 -4.000000E-01  1.000000E-01 -2.455796E-02  4.420432E-02 -5.402750E-02
      27     1  6.000000E-03 -2.000000E-01 -3.500000E-01  0.000000E+00 -1.473477E-02  1.473477E-02 -5.402750E-02
      28     1  1.200000E-02 -1.500000E-01 -3.500000E-01  5.000000E-02 -1.473477E-02  2.455796E-02 -5.402750E-02
      29     1  1.200000E-02 -1.000000E-01 -3.500000E-01  1.000000E-01 -1.473477E-02  3.438114E-02 -5.402750E-02
      30     1  1.200000E-02 -5.000000E-02 -3.500000E-01  1.500000E-01 -1.473477E-02  4.420432E-02 -5.402750E-02
      31     1  6.000000E-03 -2.500000E-01 -3.000000E-01  0.000000E+00 -4.911591E-03  4.911591E-03 -5.402750E-02
      32     1  1.200000E-02 -2.000000E-01 -3.000000E-01  5.000000E-02 -4.911591E-03  1.473477E-02 -5.402750E-02
      33     1  1.200000E-02 -1.500000E-01 -3.000000E-01  1.000000E-01 -4.911591E-03  2.455796E-02 -5.402750E-02
      34     1  1.200000E-02 -1.000000E-01 -3.000000E-01  1.500000E-01 -4.911591E-03  3.438114E-02 -5.402750E-02
      35     1  1.200000E-02 -5.000000E-02 -3.000000E-01  2.000000E-01 -4.911591E-03  4.420432E-02 -5.402750E-02
      36     1  6.000000E-03 -5.000000E-02  4.000000E-01  0.000000E+00  4.420432E-02 -4.420432E-02  3.438114E-02
      37     1  6.000000E-03 -1.000000E-01  4.500000E-01  0.000000E+00  5.402750E-02 -5.402750E-02  3.438114E-02
      38     1  6.000000E-03 -1.500000E-01  5.000000E-01  0.000000E+00  6.385069E-02 -6.385069E-02  3.438114E-02
      39     1  1.200000E-02 -1.000000E-01  5.000000E-01  5.000000E-02  6.385069E-02 -5.402750E-02  3.438114E-02
      40     1  6.000000E-03 -2.000000E-01 -4.500000E-01  0.000000E+00 -2.455796E-02  2.455796E-02 -6.385069E-02
      41     1  1.200000E-02 -1.500000E-01 -4.500000E-01  5.000000E-02 -2.455796E-02  3.438114E-02 -6.385069E-02
      42     1  1.200000E-02 -1.000000E-01 -4.500000E-01  1.000000E-01 -2.455796E-02  4.420432E-02 -6.385069E-02
      43     1  1.200000E-02 -5.000000E-02 -4.500000E-01  1.500000E-01 -2.455796E-02  5.402750E-02 -6.385069E-02
      44     1  6.000000E-03 -2.500000E-01 -4.000000E-01  0.000000E+00 -1.473477E-02  1.473477E-02 -6.385069E-02
      45     1  1.200000E-02 -2.000000E-01 -4.000000E-01  5.000000E-02 -1.473477E-02  2.455796E-02 -6.385069E-02
      46     1  1.200000E-02 -1.500000E-01 -4.000000E-01  1.000000E-01 -1.473477E-02  3.438114E-02 -6.385069E-02
      47     1  1.200000E-02 -1.000000E-01 -4.000000E-01  1.500000E-01 -1.473477E-02  4.420432E-02 -6.385069E-02
      48     1  1.200000E-02 -5.000000E-02 -4.000000E-01  2.000000E-01 -1.473477E-02  5.402750E-02 -6.385069E-02
      49     1  6.000000E-03 -3.000000E-01 -3.500000E-01  0.000000E+00 -4.911591E-03  4.911591E-03 -6.385069E-02
      50     1  1.200000E-02 -2.500000E-01 -3.500000E-01  5.000000E-02 -4.911591E-03  1.473477E-02 -6.385069E-02
      51     1  1.200000E-02 -2.000000E-01 -3.500000E-01  1.000000E-01 -4.911591E-03  2.455796E-02 -6.385069E-02
      52     1  1.200000E-02 -1.500000E-01 -3.500000E-01  1.500000E-01 -4.911591E-03  3.438114E-02 -6.385069E-02
      53     1  1.200000E-02 -1.000000E-01 -3.500000E-01  2.000000E-01 -4.911591E-03  4.420432E-02 -6.385069E-02
      54     1  1.200000E-02 -5.000000E-02 -3.500000E-01  2.500000E-01 -4.911591E-03  5.402750E-02 -6.385069E-02
      55     1  6.000000E-03 -5.000000E-02  3.000000E-01  0.000000E+00  3.438114E-02 -3.438114E-02  2.455796E-02
      56     1  6.000000E-03 -1.000000E-01  3.500000E-01  0.000000E+00  4.420432E-02 -4.420432E-02  2.455796E-02
      57     1  6.000000E-03 -1.500000E-01  4.000000E-01  0.000000E+00  5.402750E-02 -5.402750E-02  2.455796E-02
      58     1  6.000000E-03 -2.000000E-01  4.500000E-01  0.000000E+00  6.385069E-02 -6.385069E-02  2.455796E-02
      59     1  6.000000E-03 -2.500000E-01  5.000000E-01  0.000000E+00  7.367387E-02 -7.367387E-02  2.455796E-02
      60     1  1.200000E-02 -2.000000E-01  5.000000E-01  5.000000E-02  7.367387E-02 -6.385069E-02  2.455796E-02
      61     1  1.200000E-02 -1.500000E-01  5.000000E-01  1.000000E-01  7.367387E-02 -5.402750E-02  2.455796E-02
      62     1  6.000000E-03 -3.000000E-01 -4.500000E-01  0.000000E+00 -1.473477E-02  1.473477E-02 -7.367387E-02
      63     1  1.200000E-02 -2.500000E-01 -4.500000E-01  5.000000E-02 -1.473477E-02  2.455796E-02 -7.367387E-02
      64     1  1.200000E-02 -2.000000E-01 -4.500000E-01  1.000000E-01 -1.473477E-02  3.438114E-02 -7.367387E-02
      65     1  1.200000E-02 -1.500000E-01 -4.500000E-01  1.500000E-01 -1.473477E-02  4.420432E-02 -7.367387E-02
      66     1  1.200000E-02 -1.000000E-01 -4.500000E-01  2.000000E-01 -1.473477E-02  5.402750E-02 -7.367387E-02
      67     1  1.200000E-02 -5.000000E-02 -4.500000E-01  2.500000E-01 -1.473477E-02  6.385069E-02 -7.367387E-02
      68     1  6.000000E-03 -3.500000E-01 -4.000000E-01  0.000000E+00 -4.911591E-03  4.911591E-03 -7.367387E-02
      69     1  1.200000E-02 -3.000000E-01 -4.000000E-01  5.000000E-02 -4.911591E-03  1.473477E-02 -7.367387E-02
      70     1  1.200000E-02 -2.500000E-01 -4.000000E-01  1.000000E-01 -4.911591E-03  2.455796E-02 -7.367387E-02
      71     1  1.200000E-02 -2.000000E-01 -4.000000E-01  1.500000E-01 -4.911591E-03  3.438114E-02 -7.367387E-02
      72     1  1.200000E-02 -1.500000E-01 -4.000000E-01  2.000000E-01 -4.911591E-03  4.420432E-02 -7.367387E-02
      73     1  1.200000E-02 -1.000000E-01 -4.000000E-01  2.500000E-01 -4.911591E-03  5.402750E-02 -7.367387E-02
      74     1  1.200000E-02 -5.000000E-02 -4.000000E-01  3.000000E-01 -4.911591E-03  6.385069E-02 -7.367387E-02
      75     1  6.000000E-03 -5.000000E-02  2.000000E-01  0.000000E+00  2.455796E-02 -2.455796E-02  1.473477E-02
      76     1  6.000000E-03 -1.000000E-01  2.500000E-01  0.000000E+00  3.438114E-02 -3.438114E-02  1.473477E-02
      77     1  6.000000E-03 -1.500000E-01  3.000000E-01  0.000000E+00  4.420432E-02 -4.420432E-02  1.473477E-02
      78     1  6.000000E-03 -2.000000E-01  3.500000E-01  0.000000E+00  5.402750E-02 -5.402750E-02  1.473477E-02
      79     1  6.000000E-03 -2.500000E-01  4.000000E-01  0.000000E+00  6.385069E-02 -6.385069E-02  1.473477E-02
      80     1  6.000000E-03 -3.000000E-01  4.500000E-01  0.000000E+00  7.367387E-02 -7.367387E-02  1.473477E-02
      81     1  6.000000E-03 -3.500000E-01  5.000000E-01  0.000000E+00  8.349705E-02 -8.349705E-02  1.473477E-02
      82     1  1.200000E-02 -3.000000E-01  5.000000E-01  5.000000E-02  8.349705E-02 -7.367387E-02  1.473477E-02
      83     1  1.200000E-02 -2.500000E-01  5.000000E-01  1.000000E-01  8.349705E-02 -6.385069E-02  1.473477E-02
      84     1  1.200000E-02 -2.000000E-01  5.000000E-01  1.500000E-01  8.349705E-02 -5.402750E-02  1.473477E-02
      85     1  6.000000E-03 -4.000000E-01 -4.500000E-01  0.000000E+00 -4.911591E-03  4.911591E-03 -8.349705E-02
      86     1  1.200000E-02 -3.500000E-01 -4.500000E-01  5.000000E-02 -4.911591E-03  1.473477E-02 -8.349705E-02
      87     1  1.200000E-02 -3.000000E-01 -4.500000E-01  1.000000E-01 -4.911591E-03  2.455796E-02 -8.349705E-02
      88     1  1.200000E-02 -2.500000E-01 -4.500000E-01  1.500000E-01 -4.911591E-03  3.438114E-02 -8.349705E-02
      89     1  1.200000E-02 -2.000000E-01 -4.500000E-01  2.000000E-01 -4.911591E-03  4.420432E-02 -8.349705E-02
      90     1  1.200000E-02 -1.500000E-01 -4.500000E-01  2.500000E-01 -4.911591E-03  5.402750E-02 -8.349705E-02
      91     1  1.200000E-02 -1.000000E-01 -4.500000E-01  3.000000E-01 -4.911591E-03  6.385069E-02 -8.349705E-02
      92     1  1.200000E-02 -5.000000E-02 -4.500000E-01  3.500000E-01 -4.911591E-03  7.367387E-02 -8.349705E-02
      93     1  6.000000E-03 -5.000000E-02  1.000000E-01  0.000000E+00  1.473477E-02 -1.473477E-02  4.911591E-03
      94     1  6.000000E-03 -1.000000E-01  1.500000E-01  0.000000E+00  2.455796E-02 -2.455796E-02  4.911591E-03
      95     1  6.000000E-03 -1.500000E-01  2.000000E-01  0.000000E+00  3.438114E-02 -3.438114E-02  4.911591E-03
      96     1  6.000000E-03 -2.000000E-01  2.500000E-01  0.000000E+00  4.420432E-02 -4.420432E-02  4.911591E-03
      97     1  6.000000E-03 -2.500000E-01  3.000000E-01  0.000000E+00  5.402750E-02 -5.402750E-02  4.911591E-03
      98     1  6.000000E-03 -3.000000E-01  3.500000E-01  0.000000E+00  6.385069E-02 -6.385069E-02  4.911591E-03
      99     1  6.000000E-03 -3.500000E-01  4.000000E-01  0.000000E+00  7.367387E-02 -7.367387E-02  4.911591E-03
     100     1  6.000000E-03 -4.000000E-01  4.500000E-01  0.000000E+00  8.349705E-02 -8.349705E-02  4.911591E-03
 
 invars2 : Printing the k point grid from kptrlatt, shifted with shiftk and qptn, in the full Brillouin zone.
   Maximum 100 of them. No use of symmetries
 nkpt_fullbz=    4000
     ikpt      --------------- reduced coordinates ---------------  --------- cartesian coordinates ---------
       1      -5.0000000000E-02 -1.0000000000E-01  0.0000000000E+00 -4.911591E-03  4.911591E-03 -1.473477E-02
       2      -1.0000000000E-01 -5.0000000000E-02  0.0000000000E+00  4.911591E-03 -4.911591E-03 -1.473477E-02
       3      -5.0000000000E-02 -5.0000000000E-02  5.0000000000E-02  4.911591E-03  4.911591E-03 -1.473477E-02
       4      -5.0000000000E-02 -2.0000000000E-01  0.0000000000E+00 -1.473477E-02  1.473477E-02 -2.455796E-02
       5      -1.0000000000E-01 -1.5000000000E-01  0.0000000000E+00 -4.911591E-03  4.911591E-03 -2.455796E-02
       6      -5.0000000000E-02 -1.5000000000E-01  5.0000000000E-02 -4.911591E-03  1.473477E-02 -2.455796E-02
       7      -1.5000000000E-01 -1.0000000000E-01  0.0000000000E+00  4.911591E-03 -4.911591E-03 -2.455796E-02
       8      -1.0000000000E-01 -1.0000000000E-01  5.0000000000E-02  4.911591E-03  4.911591E-03 -2.455796E-02
       9      -5.0000000000E-02 -1.0000000000E-01  1.0000000000E-01  4.911591E-03  1.473477E-02 -2.455796E-02
      10      -2.0000000000E-01 -5.0000000000E-02  0.0000000000E+00  1.473477E-02 -1.473477E-02 -2.455796E-02
      11      -1.5000000000E-01 -5.0000000000E-02  5.0000000000E-02  1.473477E-02 -4.911591E-03 -2.455796E-02
      12      -1.0000000000E-01 -5.0000000000E-02  1.0000000000E-01  1.473477E-02  4.911591E-03 -2.455796E-02
      13      -5.0000000000E-02 -5.0000000000E-02  1.5000000000E-01  1.473477E-02  1.473477E-02 -2.455796E-02
      14      -5.0000000000E-02 -3.0000000000E-01  0.0000000000E+00 -2.455796E-02  2.455796E-02 -3.438114E-02
      15      -1.0000000000E-01 -2.5000000000E-01  0.0000000000E+00 -1.473477E-02  1.473477E-02 -3.438114E-02
      16      -5.0000000000E-02 -2.5000000000E-01  5.0000000000E-02 -1.473477E-02  2.455796E-02 -3.438114E-02
      17      -1.5000000000E-01 -2.0000000000E-01  0.0000000000E+00 -4.911591E-03  4.911591E-03 -3.438114E-02
      18      -1.0000000000E-01 -2.0000000000E-01  5.0000000000E-02 -4.911591E-03  1.473477E-02 -3.438114E-02
      19      -5.0000000000E-02 -2.0000000000E-01  1.0000000000E-01 -4.911591E-03  2.455796E-02 -3.438114E-02
      20      -2.0000000000E-01 -1.5000000000E-01  0.0000000000E+00  4.911591E-03 -4.911591E-03 -3.438114E-02
      21      -1.5000000000E-01 -1.5000000000E-01  5.0000000000E-02  4.911591E-03  4.911591E-03 -3.438114E-02
      22      -1.0000000000E-01 -1.5000000000E-01  1.0000000000E-01  4.911591E-03  1.473477E-02 -3.438114E-02
      23      -5.0000000000E-02 -1.5000000000E-01  1.5000000000E-01  4.911591E-03  2.455796E-02 -3.438114E-02
      24      -2.5000000000E-01 -1.0000000000E-01  0.0000000000E+00  1.473477E-02 -1.473477E-02 -3.438114E-02
      25      -2.0000000000E-01 -1.0000000000E-01  5.0000000000E-02  1.473477E-02 -4.911591E-03 -3.438114E-02
      26      -1.5000000000E-01 -1.0000000000E-01  1.0000000000E-01  1.473477E-02  4.911591E-03 -3.438114E-02
      27      -1.0000000000E-01 -1.0000000000E-01  1.5000000000E-01  1.473477E-02  1.473477E-02 -3.438114E-02
      28      -5.0000000000E-02 -1.0000000000E-01  2.0000000000E-01  1.473477E-02  2.455796E-02 -3.438114E-02
      29      -3.0000000000E-01 -5.0000000000E-02  0.0000000000E+00  2.455796E-02 -2.455796E-02 -3.438114E-02
      30      -2.5000000000E-01 -5.0000000000E-02  5.0000000000E-02  2.455796E-02 -1.473477E-02 -3.438114E-02
      31      -2.0000000000E-01 -5.0000000000E-02  1.0000000000E-01  2.455796E-02 -4.911591E-03 -3.438114E-02
      32      -1.5000000000E-01 -5.0000000000E-02  1.5000000000E-01  2.455796E-02  4.911591E-03 -3.438114E-02
      33      -1.0000000000E-01 -5.0000000000E-02  2.0000000000E-01  2.455796E-02  1.473477E-02 -3.438114E-02
      34      -5.0000000000E-02 -5.0000000000E-02  2.5000000000E-01  2.455796E-02  2.455796E-02 -3.438114E-02
      35      -5.0000000000E-02 -4.0000000000E-01  0.0000000000E+00 -3.438114E-02  3.438114E-02 -4.420432E-02
      36      -1.0000000000E-01 -3.5000000000E-01  0.0000000000E+00 -2.455796E-02  2.455796E-02 -4.420432E-02
      37      -5.0000000000E-02 -3.5000000000E-01  5.0000000000E-02 -2.455796E-02  3.438114E-02 -4.420432E-02
      38      -1.5000000000E-01 -3.0000000000E-01  0.0000000000E+00 -1.473477E-02  1.473477E-02 -4.420432E-02
      39      -1.0000000000E-01 -3.0000000000E-01  5.0000000000E-02 -1.473477E-02  2.455796E-02 -4.420432E-02
      40      -5.0000000000E-02 -3.0000000000E-01  1.0000000000E-01 -1.473477E-02  3.438114E-02 -4.420432E-02
      41      -2.0000000000E-01 -2.5000000000E-01  0.0000000000E+00 -4.911591E-03  4.911591E-03 -4.420432E-02
      42      -1.5000000000E-01 -2.5000000000E-01  5.0000000000E-02 -4.911591E-03  1.473477E-02 -4.420432E-02
      43      -1.0000000000E-01 -2.5000000000E-01  1.0000000000E-01 -4.911591E-03  2.455796E-02 -4.420432E-02
      44      -5.0000000000E-02 -2.5000000000E-01  1.5000000000E-01 -4.911591E-03  3.438114E-02 -4.420432E-02
      45      -2.5000000000E-01 -2.0000000000E-01  0.0000000000E+00  4.911591E-03 -4.911591E-03 -4.420432E-02
      46      -2.0000000000E-01 -2.0000000000E-01  5.0000000000E-02  4.911591E-03  4.911591E-03 -4.420432E-02
      47      -1.5000000000E-01 -2.0000000000E-01  1.0000000000E-01  4.911591E-03  1.473477E-02 -4.420432E-02
      48      -1.0000000000E-01 -2.0000000000E-01  1.5000000000E-01  4.911591E-03  2.455796E-02 -4.420432E-02
      49      -5.0000000000E-02 -2.0000000000E-01  2.0000000000E-01  4.911591E-03  3.438114E-02 -4.420432E-02
      50      -3.0000000000E-01 -1.5000000000E-01  0.0000000000E+00  1.473477E-02 -1.473477E-02 -4.420432E-02
      51      -2.5000000000E-01 -1.5000000000E-01  5.0000000000E-02  1.473477E-02 -4.911591E-03 -4.420432E-02
      52      -2.0000000000E-01 -1.5000000000E-01  1.0000000000E-01  1.473477E-02  4.911591E-03 -4.420432E-02
      53      -1.5000000000E-01 -1.5000000000E-01  1.5000000000E-01  1.473477E-02  1.473477E-02 -4.420432E-02
      54      -1.0000000000E-01 -1.5000000000E-01  2.0000000000E-01  1.473477E-02  2.455796E-02 -4.420432E-02
      55      -5.0000000000E-02 -1.5000000000E-01  2.5000000000E-01  1.473477E-02  3.438114E-02 -4.420432E-02
      56      -3.5000000000E-01 -1.0000000000E-01  0.0000000000E+00  2.455796E-02 -2.455796E-02 -4.420432E-02
      57      -3.0000000000E-01 -1.0000000000E-01  5.0000000000E-02  2.455796E-02 -1.473477E-02 -4.420432E-02
      58      -2.5000000000E-01 -1.0000000000E-01  1.0000000000E-01  2.455796E-02 -4.911591E-03 -4.420432E-02
      59      -2.0000000000E-01 -1.0000000000E-01  1.5000000000E-01  2.455796E-02  4.911591E-03 -4.420432E-02
      60      -1.5000000000E-01 -1.0000000000E-01  2.0000000000E-01  2.455796E-02  1.473477E-02 -4.420432E-02
      61      -1.0000000000E-01 -1.0000000000E-01  2.5000000000E-01  2.455796E-02  2.455796E-02 -4.420432E-02
      62      -5.0000000000E-02 -1.0000000000E-01  3.0000000000E-01  2.455796E-02  3.438114E-02 -4.420432E-02
      63      -4.0000000000E-01 -5.0000000000E-02  0.0000000000E+00  3.438114E-02 -3.438114E-02 -4.420432E-02
      64      -3.5000000000E-01 -5.0000000000E-02  5.0000000000E-02  3.438114E-02 -2.455796E-02 -4.420432E-02
      65      -3.0000000000E-01 -5.0000000000E-02  1.0000000000E-01  3.438114E-02 -1.473477E-02 -4.420432E-02
      66      -2.5000000000E-01 -5.0000000000E-02  1.5000000000E-01  3.438114E-02 -4.911591E-03 -4.420432E-02
      67      -2.0000000000E-01 -5.0000000000E-02  2.0000000000E-01  3.438114E-02  4.911591E-03 -4.420432E-02
      68      -1.5000000000E-01 -5.0000000000E-02  2.5000000000E-01  3.438114E-02  1.473477E-02 -4.420432E-02
      69      -1.0000000000E-01 -5.0000000000E-02  3.0000000000E-01  3.438114E-02  2.455796E-02 -4.420432E-02
      70      -5.0000000000E-02 -5.0000000000E-02  3.5000000000E-01  3.438114E-02  3.438114E-02 -4.420432E-02
      71      -5.0000000000E-02  5.0000000000E-01  0.0000000000E+00  5.402750E-02 -5.402750E-02  4.420432E-02
      72      -1.0000000000E-01 -4.5000000000E-01  0.0000000000E+00 -3.438114E-02  3.438114E-02 -5.402750E-02
      73      -5.0000000000E-02 -4.5000000000E-01  5.0000000000E-02 -3.438114E-02  4.420432E-02 -5.402750E-02
      74      -1.5000000000E-01 -4.0000000000E-01  0.0000000000E+00 -2.455796E-02  2.455796E-02 -5.402750E-02
      75      -1.0000000000E-01 -4.0000000000E-01  5.0000000000E-02 -2.455796E-02  3.438114E-02 -5.402750E-02
      76      -5.0000000000E-02 -4.0000000000E-01  1.0000000000E-01 -2.455796E-02  4.420432E-02 -5.402750E-02
      77      -2.0000000000E-01 -3.5000000000E-01  0.0000000000E+00 -1.473477E-02  1.473477E-02 -5.402750E-02
      78      -1.5000000000E-01 -3.5000000000E-01  5.0000000000E-02 -1.473477E-02  2.455796E-02 -5.402750E-02
      79      -1.0000000000E-01 -3.5000000000E-01  1.0000000000E-01 -1.473477E-02  3.438114E-02 -5.402750E-02
      80      -5.0000000000E-02 -3.5000000000E-01  1.5000000000E-01 -1.473477E-02  4.420432E-02 -5.402750E-02
      81      -2.5000000000E-01 -3.0000000000E-01  0.0000000000E+00 -4.911591E-03  4.911591E-03 -5.402750E-02
      82      -2.0000000000E-01 -3.0000000000E-01  5.0000000000E-02 -4.911591E-03  1.473477E-02 -5.402750E-02
      83      -1.5000000000E-01 -3.0000000000E-01  1.0000000000E-01 -4.911591E-03  2.455796E-02 -5.402750E-02
      84      -1.0000000000E-01 -3.0000000000E-01  1.5000000000E-01 -4.911591E-03  3.438114E-02 -5.402750E-02
      85      -5.0000000000E-02 -3.0000000000E-01  2.0000000000E-01 -4.911591E-03  4.420432E-02 -5.402750E-02
      86      -3.0000000000E-01 -2.5000000000E-01  0.0000000000E+00  4.911591E-03 -4.911591E-03 -5.402750E-02
      87      -2.5000000000E-01 -2.5000000000E-01  5.0000000000E-02  4.911591E-03  4.911591E-03 -5.402750E-02
      88      -2.0000000000E-01 -2.5000000000E-01  1.0000000000E-01  4.911591E-03  1.473477E-02 -5.402750E-02
      89      -1.5000000000E-01 -2.5000000000E-01  1.5000000000E-01  4.911591E-03  2.455796E-02 -5.402750E-02
      90      -1.0000000000E-01 -2.5000000000E-01  2.0000000000E-01  4.911591E-03  3.438114E-02 -5.402750E-02
      91      -5.0000000000E-02 -2.5000000000E-01  2.5000000000E-01  4.911591E-03  4.420432E-02 -5.402750E-02
      92      -3.5000000000E-01 -2.0000000000E-01  0.0000000000E+00  1.473477E-02 -1.473477E-02 -5.402750E-02
      93      -3.0000000000E-01 -2.0000000000E-01  5.0000000000E-02  1.473477E-02 -4.911591E-03 -5.402750E-02
      94      -2.5000000000E-01 -2.0000000000E-01  1.0000000000E-01  1.473477E-02  4.911591E-03 -5.402750E-02
      95      -2.0000000000E-01 -2.0000000000E-01  1.5000000000E-01  1.473477E-02  1.473477E-02 -5.402750E-02
      96      -1.5000000000E-01 -2.0000000000E-01  2.0000000000E-01  1.473477E-02  2.455796E-02 -5.402750E-02
      97      -1.0000000000E-01 -2.0000000000E-01  2.5000000000E-01  1.473477E-02  3.438114E-02 -5.402750E-02
      98      -5.0000000000E-02 -2.0000000000E-01  3.0000000000E-01  1.473477E-02  4.420432E-02 -5.402750E-02
      99      -4.0000000000E-01 -1.5000000000E-01  0.0000000000E+00  2.455796E-02 -2.455796E-02 -5.402750E-02
     100      -3.5000000000E-01 -1.5000000000E-01  5.0000000000E-02  2.455796E-02 -1.473477E-02 -5.402750E-02
 

  chkneu : enter, dtset%nelect=   8.0000000000000000     
  occopt,dtset%nsppol,dtset%nspden=           1           1           1
  maxocc,nocc,occlast=   2.0000000000000000                4   2.0000000000000000     
 chkneu : initialized the occupation numbers for occopt=    1, spin-unpolarized or antiferromagnetic case :
  2.00  2.00  2.00  2.00  0.00
 invars2: take the default value of fband=  1.25000000E-01
       Simple Lattice Grid
 
 invars2 : Printing the k point grid (values of kptns - max 100 of them)
 nkpt=     182
     ikpt istwfk    wtk       --------- reduced coordinates ---------  --------- cartesian coordinates ---------
       1     1  3.472222E-03 -4.166667E-02 -8.333333E-02  0.000000E+00 -4.092993E-03  4.092993E-03 -1.227898E-02
       2     1  3.472222E-03 -4.166667E-02 -1.666667E-01  0.000000E+00 -1.227898E-02  1.227898E-02 -2.046496E-02
       3     1  3.472222E-03 -8.333333E-02 -1.250000E-01  0.000000E+00 -4.092993E-03  4.092993E-03 -2.046496E-02
       4     1  6.944444E-03 -4.166667E-02 -1.250000E-01  4.166667E-02 -4.092993E-03  1.227898E-02 -2.046496E-02
       5     1  3.472222E-03 -4.166667E-02 -2.500000E-01  0.000000E+00 -2.046496E-02  2.046496E-02 -2.865095E-02
       6     1  3.472222E-03 -8.333333E-02 -2.083333E-01  0.000000E+00 -1.227898E-02  1.227898E-02 -2.865095E-02
       7     1  6.944444E-03 -4.166667E-02 -2.083333E-01  4.166667E-02 -1.227898E-02  2.046496E-02 -2.865095E-02
       8     1  3.472222E-03 -1.250000E-01 -1.666667E-01  0.000000E+00 -4.092993E-03  4.092993E-03 -2.865095E-02
       9     1  6.944444E-03 -8.333333E-02 -1.666667E-01  4.166667E-02 -4.092993E-03  1.227898E-02 -2.865095E-02
      10     1  6.944444E-03 -4.166667E-02 -1.666667E-01  8.333333E-02 -4.092993E-03  2.046496E-02 -2.865095E-02
      11     1  3.472222E-03 -4.166667E-02 -3.333333E-01  0.000000E+00 -2.865095E-02  2.865095E-02 -3.683694E-02
      12     1  3.472222E-03 -8.333333E-02 -2.916667E-01  0.000000E+00 -2.046496E-02  2.046496E-02 -3.683694E-02
      13     1  6.944444E-03 -4.166667E-02 -2.916667E-01  4.166667E-02 -2.046496E-02  2.865095E-02 -3.683694E-02
      14     1  3.472222E-03 -1.250000E-01 -2.500000E-01  0.000000E+00 -1.227898E-02  1.227898E-02 -3.683694E-02
      15     1  6.944444E-03 -8.333333E-02 -2.500000E-01  4.166667E-02 -1.227898E-02  2.046496E-02 -3.683694E-02
      16     1  6.944444E-03 -4.166667E-02 -2.500000E-01  8.333333E-02 -1.227898E-02  2.865095E-02 -3.683694E-02
      17     1  3.472222E-03 -1.666667E-01 -2.083333E-01  0.000000E+00 -4.092993E-03  4.092993E-03 -3.683694E-02
      18     1  6.944444E-03 -1.250000E-01 -2.083333E-01  4.166667E-02 -4.092993E-03  1.227898E-02 -3.683694E-02
      19     1  6.944444E-03 -8.333333E-02 -2.083333E-01  8.333333E-02 -4.092993E-03  2.046496E-02 -3.683694E-02
      20     1  6.944444E-03 -4.166667E-02 -2.083333E-01  1.250000E-01 -4.092993E-03  2.865095E-02 -3.683694E-02
      21     1  3.472222E-03 -4.166667E-02 -4.166667E-01  0.000000E+00 -3.683694E-02  3.683694E-02 -4.502292E-02
      22     1  3.472222E-03 -8.333333E-02 -3.750000E-01  0.000000E+00 -2.865095E-02  2.865095E-02 -4.502292E-02
      23     1  6.944444E-03 -4.166667E-02 -3.750000E-01  4.166667E-02 -2.865095E-02  3.683694E-02 -4.502292E-02
      24     1  3.472222E-03 -1.250000E-01 -3.333333E-01  0.000000E+00 -2.046496E-02  2.046496E-02 -4.502292E-02
      25     1  6.944444E-03 -8.333333E-02 -3.333333E-01  4.166667E-02 -2.046496E-02  2.865095E-02 -4.502292E-02
      26     1  6.944444E-03 -4.166667E-02 -3.333333E-01  8.333333E-02 -2.046496E-02  3.683694E-02 -4.502292E-02
      27     1  3.472222E-03 -1.666667E-01 -2.916667E-01  0.000000E+00 -1.227898E-02  1.227898E-02 -4.502292E-02
      28     1  6.944444E-03 -1.250000E-01 -2.916667E-01  4.166667E-02 -1.227898E-02  2.046496E-02 -4.502292E-02
      29     1  6.944444E-03 -8.333333E-02 -2.916667E-01  8.333333E-02 -1.227898E-02  2.865095E-02 -4.502292E-02
      30     1  6.944444E-03 -4.166667E-02 -2.916667E-01  1.250000E-01 -1.227898E-02  3.683694E-02 -4.502292E-02
      31     1  3.472222E-03 -2.083333E-01 -2.500000E-01  0.000000E+00 -4.092993E-03  4.092993E-03 -4.502292E-02
      32     1  6.944444E-03 -1.666667E-01 -2.500000E-01  4.166667E-02 -4.092993E-03  1.227898E-02 -4.502292E-02
      33     1  6.944444E-03 -1.250000E-01 -2.500000E-01  8.333333E-02 -4.092993E-03  2.046496E-02 -4.502292E-02
      34     1  6.944444E-03 -8.333333E-02 -2.500000E-01  1.250000E-01 -4.092993E-03  2.865095E-02 -4.502292E-02
      35     1  6.944444E-03 -4.166667E-02 -2.500000E-01  1.666667E-01 -4.092993E-03  3.683694E-02 -4.502292E-02
      36     1  3.472222E-03 -4.166667E-02  5.000000E-01  0.000000E+00  5.320891E-02 -5.320891E-02  4.502292E-02
      37     1  3.472222E-03 -8.333333E-02 -4.583333E-01  0.000000E+00 -3.683694E-02  3.683694E-02 -5.320891E-02
      38     1  6.944444E-03 -4.166667E-02 -4.583333E-01  4.166667E-02 -3.683694E-02  4.502292E-02 -5.320891E-02
      39     1  3.472222E-03 -1.250000E-01 -4.166667E-01  0.000000E+00 -2.865095E-02  2.865095E-02 -5.320891E-02
      40     1  6.944444E-03 -8.333333E-02 -4.166667E-01  4.166667E-02 -2.865095E-02  3.683694E-02 -5.320891E-02
      41     1  6.944444E-03 -4.166667E-02 -4.166667E-01  8.333333E-02 -2.865095E-02  4.502292E-02 -5.320891E-02
      42     1  3.472222E-03 -1.666667E-01 -3.750000E-01  0.000000E+00 -2.046496E-02  2.046496E-02 -5.320891E-02
      43     1  6.944444E-03 -1.250000E-01 -3.750000E-01  4.166667E-02 -2.046496E-02  2.865095E-02 -5.320891E-02
      44     1  6.944444E-03 -8.333333E-02 -3.750000E-01  8.333333E-02 -2.046496E-02  3.683694E-02 -5.320891E-02
      45     1  6.944444E-03 -4.166667E-02 -3.750000E-01  1.250000E-01 -2.046496E-02  4.502292E-02 -5.320891E-02
      46     1  3.472222E-03 -2.083333E-01 -3.333333E-01  0.000000E+00 -1.227898E-02  1.227898E-02 -5.320891E-02
      47     1  6.944444E-03 -1.666667E-01 -3.333333E-01  4.166667E-02 -1.227898E-02  2.046496E-02 -5.320891E-02
      48     1  6.944444E-03 -1.250000E-01 -3.333333E-01  8.333333E-02 -1.227898E-02  2.865095E-02 -5.320891E-02
      49     1  6.944444E-03 -8.333333E-02 -3.333333E-01  1.250000E-01 -1.227898E-02  3.683694E-02 -5.320891E-02
      50     1  6.944444E-03 -4.166667E-02 -3.333333E-01  1.666667E-01 -1.227898E-02  4.502292E-02 -5.320891E-02
      51     1  3.472222E-03 -2.500000E-01 -2.916667E-01  0.000000E+00 -4.092993E-03  4.092993E-03 -5.320891E-02
      52     1  6.944444E-03 -2.083333E-01 -2.916667E-01  4.166667E-02 -4.092993E-03  1.227898E-02 -5.320891E-02
      53     1  6.944444E-03 -1.666667E-01 -2.916667E-01  8.333333E-02 -4.092993E-03  2.046496E-02 -5.320891E-02
      54     1  6.944444E-03 -1.250000E-01 -2.916667E-01  1.250000E-01 -4.092993E-03  2.865095E-02 -5.320891E-02
      55     1  6.944444E-03 -8.333333E-02 -2.916667E-01  1.666667E-01 -4.092993E-03  3.683694E-02 -5.320891E-02
      56     1  6.944444E-03 -4.166667E-02 -2.916667E-01  2.083333E-01 -4.092993E-03  4.502292E-02 -5.320891E-02
      57     1  3.472222E-03 -4.166667E-02  4.166667E-01  0.000000E+00  4.502292E-02 -4.502292E-02  3.683694E-02
      58     1  3.472222E-03 -8.333333E-02  4.583333E-01  0.000000E+00  5.320891E-02 -5.320891E-02  3.683694E-02
      59     1  3.472222E-03 -1.250000E-01  5.000000E-01  0.000000E+00  6.139489E-02 -6.139489E-02  3.683694E-02
      60     1  6.944444E-03 -8.333333E-02  5.000000E-01  4.166667E-02  6.139489E-02 -5.320891E-02  3.683694E-02
      61     1  3.472222E-03 -1.666667E-01 -4.583333E-01  0.000000E+00 -2.865095E-02  2.865095E-02 -6.139489E-02
      62     1  6.944444E-03 -1.250000E-01 -4.583333E-01  4.166667E-02 -2.865095E-02  3.683694E-02 -6.139489E-02
      63     1  6.944444E-03 -8.333333E-02 -4.583333E-01  8.333333E-02 -2.865095E-02  4.502292E-02 -6.139489E-02
      64     1  6.944444E-03 -4.166667E-02 -4.583333E-01  1.250000E-01 -2.865095E-02  5.320891E-02 -6.139489E-02
      65     1  3.472222E-03 -2.083333E-01 -4.166667E-01  0.000000E+00 -2.046496E-02  2.046496E-02 -6.139489E-02
      66     1  6.944444E-03 -1.666667E-01 -4.166667E-01  4.166667E-02 -2.046496E-02  2.865095E-02 -6.139489E-02
      67     1  6.944444E-03 -1.250000E-01 -4.166667E-01  8.333333E-02 -2.046496E-02  3.683694E-02 -6.139489E-02
      68     1  6.944444E-03 -8.333333E-02 -4.166667E-01  1.250000E-01 -2.046496E-02  4.502292E-02 -6.139489E-02
      69     1  6.944444E-03 -4.166667E-02 -4.166667E-01  1.666667E-01 -2.046496E-02  5.320891E-02 -6.139489E-02
      70     1  3.472222E-03 -2.500000E-01 -3.750000E-01  0.000000E+00 -1.227898E-02  1.227898E-02 -6.139489E-02
      71     1  6.944444E-03 -2.083333E-01 -3.750000E-01  4.166667E-02 -1.227898E-02  2.046496E-02 -6.139489E-02
      72     1  6.944444E-03 -1.666667E-01 -3.750000E-01  8.333333E-02 -1.227898E-02  2.865095E-02 -6.139489E-02
      73     1  6.944444E-03 -1.250000E-01 -3.750000E-01  1.250000E-01 -1.227898E-02  3.683694E-02 -6.139489E-02
      74     1  6.944444E-03 -8.333333E-02 -3.750000E-01  1.666667E-01 -1.227898E-02  4.502292E-02 -6.139489E-02
      75     1  6.944444E-03 -4.166667E-02 -3.750000E-01  2.083333E-01 -1.227898E-02  5.320891E-02 -6.139489E-02
      76     1  3.472222E-03 -2.916667E-01 -3.333333E-01  0.000000E+00 -4.092993E-03  4.092993E-03 -6.139489E-02
      77     1  6.944444E-03 -2.500000E-01 -3.333333E-01  4.166667E-02 -4.092993E-03  1.227898E-02 -6.139489E-02
      78     1  6.944444E-03 -2.083333E-01 -3.333333E-01  8.333333E-02 -4.092993E-03  2.046496E-02 -6.139489E-02
      79     1  6.944444E-03 -1.666667E-01 -3.333333E-01  1.250000E-01 -4.092993E-03  2.865095E-02 -6.139489E-02
      80     1  6.944444E-03 -1.250000E-01 -3.333333E-01  1.666667E-01 -4.092993E-03  3.683694E-02 -6.139489E-02
      81     1  6.944444E-03 -8.333333E-02 -3.333333E-01  2.083333E-01 -4.092993E-03  4.502292E-02 -6.139489E-02
      82     1  6.944444E-03 -4.166667E-02 -3.333333E-01  2.500000E-01 -4.092993E-03  5.320891E-02 -6.139489E-02
      83     1  3.472222E-03 -4.166667E-02  3.333333E-01  0.000000E+00  3.683694E-02 -3.683694E-02  2.865095E-02
      84     1  3.472222E-03 -8.333333E-02  3.750000E-01  0.000000E+00  4.502292E-02 -4.502292E-02  2.865095E-02
      85     1  3.472222E-03 -1.250000E-01  4.166667E-01  0.000000E+00  5.320891E-02 -5.320891E-02  2.865095E-02
      86     1  3.472222E-03 -1.666667E-01  4.583333E-01  0.000000E+00  6.139489E-02 -6.139489E-02  2.865095E-02
      87     1  3.472222E-03 -2.083333E-01  5.000000E-01  0.000000E+00  6.958088E-02 -6.958088E-02  2.865095E-02
      88     1  6.944444E-03 -1.666667E-01  5.000000E-01  4.166667E-02  6.958088E-02 -6.139489E-02  2.865095E-02
      89     1  6.944444E-03 -1.250000E-01  5.000000E-01  8.333333E-02  6.958088E-02 -5.320891E-02  2.865095E-02
      90     1  3.472222E-03 -2.500000E-01 -4.583333E-01  0.000000E+00 -2.046496E-02  2.046496E-02 -6.958088E-02
      91     1  6.944444E-03 -2.083333E-01 -4.583333E-01  4.166667E-02 -2.046496E-02  2.865095E-02 -6.958088E-02
      92     1  6.944444E-03 -1.666667E-01 -4.583333E-01  8.333333E-02 -2.046496E-02  3.683694E-02 -6.958088E-02
      93     1  6.944444E-03 -1.250000E-01 -4.583333E-01  1.250000E-01 -2.046496E-02  4.502292E-02 -6.958088E-02
      94     1  6.944444E-03 -8.333333E-02 -4.583333E-01  1.666667E-01 -2.046496E-02  5.320891E-02 -6.958088E-02
      95     1  6.944444E-03 -4.166667E-02 -4.583333E-01  2.083333E-01 -2.046496E-02  6.139489E-02 -6.958088E-02
      96     1  3.472222E-03 -2.916667E-01 -4.166667E-01  0.000000E+00 -1.227898E-02  1.227898E-02 -6.958088E-02
[...]
                      -1.00000000E-01 -4.00000000E-01  1.50000000E-01
                      -5.00000000E-02 -4.00000000E-01  2.00000000E-01
                      -3.00000000E-01 -3.50000000E-01  0.00000000E+00
                      -2.50000000E-01 -3.50000000E-01  5.00000000E-02
              kpt5    -4.16666667E-02 -8.33333333E-02  0.00000000E+00
                      -4.16666667E-02 -1.66666667E-01  0.00000000E+00
                      -8.33333333E-02 -1.25000000E-01  0.00000000E+00
                      -4.16666667E-02 -1.25000000E-01  4.16666667E-02
                      -4.16666667E-02 -2.50000000E-01  0.00000000E+00
                      -8.33333333E-02 -2.08333333E-01  0.00000000E+00
                      -4.16666667E-02 -2.08333333E-01  4.16666667E-02
                      -1.25000000E-01 -1.66666667E-01  0.00000000E+00
                      -8.33333333E-02 -1.66666667E-01  4.16666667E-02
                      -4.16666667E-02 -1.66666667E-01  8.33333333E-02
                      -4.16666667E-02 -3.33333333E-01  0.00000000E+00
                      -8.33333333E-02 -2.91666667E-01  0.00000000E+00
                      -4.16666667E-02 -2.91666667E-01  4.16666667E-02
                      -1.25000000E-01 -2.50000000E-01  0.00000000E+00
                      -8.33333333E-02 -2.50000000E-01  4.16666667E-02
                      -4.16666667E-02 -2.50000000E-01  8.33333333E-02
                      -1.66666667E-01 -2.08333333E-01  0.00000000E+00
                      -1.25000000E-01 -2.08333333E-01  4.16666667E-02
                      -8.33333333E-02 -2.08333333E-01  8.33333333E-02
                      -4.16666667E-02 -2.08333333E-01  1.25000000E-01
                      -4.16666667E-02 -4.16666667E-01  0.00000000E+00
                      -8.33333333E-02 -3.75000000E-01  0.00000000E+00
                      -4.16666667E-02 -3.75000000E-01  4.16666667E-02
                      -1.25000000E-01 -3.33333333E-01  0.00000000E+00
                      -8.33333333E-02 -3.33333333E-01  4.16666667E-02
                      -4.16666667E-02 -3.33333333E-01  8.33333333E-02
                      -1.66666667E-01 -2.91666667E-01  0.00000000E+00
                      -1.25000000E-01 -2.91666667E-01  4.16666667E-02
                      -8.33333333E-02 -2.91666667E-01  8.33333333E-02
                      -4.16666667E-02 -2.91666667E-01  1.25000000E-01
                      -2.08333333E-01 -2.50000000E-01  0.00000000E+00
                      -1.66666667E-01 -2.50000000E-01  4.16666667E-02
                      -1.25000000E-01 -2.50000000E-01  8.33333333E-02
                      -8.33333333E-02 -2.50000000E-01  1.25000000E-01
                      -4.16666667E-02 -2.50000000E-01  1.66666667E-01
                      -4.16666667E-02  5.00000000E-01  0.00000000E+00
                      -8.33333333E-02 -4.58333333E-01  0.00000000E+00
                      -4.16666667E-02 -4.58333333E-01  4.16666667E-02
                      -1.25000000E-01 -4.16666667E-01  0.00000000E+00
                      -8.33333333E-02 -4.16666667E-01  4.16666667E-02
                      -4.16666667E-02 -4.16666667E-01  8.33333333E-02
                      -1.66666667E-01 -3.75000000E-01  0.00000000E+00
                      -1.25000000E-01 -3.75000000E-01  4.16666667E-02
                      -8.33333333E-02 -3.75000000E-01  8.33333333E-02
                      -4.16666667E-02 -3.75000000E-01  1.25000000E-01
                      -2.08333333E-01 -3.33333333E-01  0.00000000E+00
                      -1.66666667E-01 -3.33333333E-01  4.16666667E-02
                      -1.25000000E-01 -3.33333333E-01  8.33333333E-02
                      -8.33333333E-02 -3.33333333E-01  1.25000000E-01
                      -4.16666667E-02 -3.33333333E-01  1.66666667E-01
                       outvar_i_n : Printing only first  50 k-points.
         kptrlatt1       2   -2    2     -2    2    2     -2   -2    2
         kptrlatt2       6   -6    6     -6    6    6     -6   -6    6
         kptrlatt3       8   -8    8     -8    8    8     -8   -8    8
         kptrlatt4      10  -10   10    -10   10   10    -10  -10   10
         kptrlatt5      12  -12   12    -12   12   12    -12  -12   12
          kptrlen1     2.03600000E+01
          kptrlen2     6.10800000E+01
          kptrlen3     8.14400000E+01
          kptrlen4     1.01800000E+02
          kptrlen5     1.22160000E+02
P           mkmem1          2
P           mkmem2         28
P           mkmem3         60
P           mkmem4        110
P           mkmem5        182
            natom           2
            nband1          5
            nband2          5
            nband3          5
            nband4          5
            nband5          5
           ndtset           5
            ngfft          50      50      50
             nkpt1          2
             nkpt2         28
             nkpt3         60
             nkpt4        110
             nkpt5        182
            nstep          10
             nsym          48
            ntime          10
           ntypat           1
              occ1     2.000000  2.000000  2.000000  2.000000  0.000000
              occ2     2.000000  2.000000  2.000000  2.000000  0.000000
              occ3     2.000000  2.000000  2.000000  2.000000  0.000000
              occ4     2.000000  2.000000  2.000000  2.000000  0.000000
              occ5     2.000000  2.000000  2.000000  2.000000  0.000000
          optcell           1
            rprim      0.0000000000E+00  5.0000000000E-01  5.0000000000E-01
                       5.0000000000E-01  0.0000000000E+00  5.0000000000E-01
                       5.0000000000E-01  5.0000000000E-01  0.0000000000E+00
           shiftk      5.00000000E-01  5.00000000E-01  5.00000000E-01
          spgroup         227
           strten1    -1.0270388690E-08 -1.0270388690E-08 -1.0270388690E-08
                       0.0000000000E+00  0.0000000000E+00  0.0000000000E+00
           strten2    -4.5617549902E-07 -4.5617549902E-07 -4.5617549902E-07
                       0.0000000000E+00  0.0000000000E+00  0.0000000000E+00
           strten3    -3.7943094474E-07 -3.7943094474E-07 -3.7943094474E-07
                       0.0000000000E+00  0.0000000000E+00  0.0000000000E+00
           strten4    -3.8592019726E-07 -3.8592019726E-07 -3.8592019726E-07
                       0.0000000000E+00  0.0000000000E+00  0.0000000000E+00
           strten5    -3.7472719122E-07 -3.7472719122E-07 -3.7472719122E-07
                       0.0000000000E+00  0.0000000000E+00  0.0000000000E+00
           symrel      1  0  0   0  1  0   0  0  1      -1  0  0   0 -1  0   0  0 -1
                       0 -1  1   0 -1  0   1 -1  0       0  1 -1   0  1  0  -1  1  0
                      -1  0  0  -1  0  1  -1  1  0       1  0  0   1  0 -1   1 -1  0
                       0  1 -1   1  0 -1   0  0 -1       0 -1  1  -1  0  1   0  0  1
                      -1  0  0  -1  1  0  -1  0  1       1  0  0   1 -1  0   1  0 -1
                       0 -1  1   1 -1  0   0 -1  0       0  1 -1  -1  1  0   0  1  0
                       1  0  0   0  0  1   0  1  0      -1  0  0   0  0 -1   0 -1  0
                       0  1 -1   0  0 -1   1  0 -1       0 -1  1   0  0  1  -1  0  1
                      -1  0  1  -1  1  0  -1  0  0       1  0 -1   1 -1  0   1  0  0
                       0 -1  0   1 -1  0   0 -1  1       0  1  0  -1  1  0   0  1 -1
                       1  0 -1   0  0 -1   0  1 -1      -1  0  1   0  0  1   0 -1  1
                       0  1  0   0  0  1   1  0  0       0 -1  0   0  0 -1  -1  0  0
                       1  0 -1   0  1 -1   0  0 -1      -1  0  1   0 -1  1   0  0  1
                       0 -1  0   0 -1  1   1 -1  0       0  1  0   0  1 -1  -1  1  0
                      -1  0  1  -1  0  0  -1  1  0       1  0 -1   1  0  0   1 -1  0
                       0  1  0   1  0  0   0  0  1       0 -1  0  -1  0  0   0  0 -1
                       0  0 -1   0  1 -1   1  0 -1       0  0  1   0 -1  1  -1  0  1
                       1 -1  0   0 -1  1   0 -1  0      -1  1  0   0  1 -1   0  1  0
                       0  0  1   1  0  0   0  1  0       0  0 -1  -1  0  0   0 -1  0
                      -1  1  0  -1  0  0  -1  0  1       1 -1  0   1  0  0   1  0 -1
                       0  0  1   0  1  0   1  0  0       0  0 -1   0 -1  0  -1  0  0
                       1 -1  0   0 -1  0   0 -1  1      -1  1  0   0  1  0   0  1 -1
                       0  0 -1   1  0 -1   0  1 -1       0  0  1  -1  0  1   0 -1  1
                      -1  1  0  -1  0  1  -1  0  0       1 -1  0   1  0 -1   1  0  0
            tnons      0.0000000  0.0000000  0.0000000     0.2500000  0.2500000  0.2500000
                       0.0000000  0.0000000  0.0000000     0.2500000  0.2500000  0.2500000
                       0.0000000  0.0000000  0.0000000     0.2500000  0.2500000  0.2500000
                       0.0000000  0.0000000  0.0000000     0.2500000  0.2500000  0.2500000
                       0.0000000  0.0000000  0.0000000     0.2500000  0.2500000  0.2500000
                       0.0000000  0.0000000  0.0000000     0.2500000  0.2500000  0.2500000
                       0.0000000  0.0000000  0.0000000     0.2500000  0.2500000  0.2500000
                       0.0000000  0.0000000  0.0000000     0.2500000  0.2500000  0.2500000
                       0.0000000  0.0000000  0.0000000     0.2500000  0.2500000  0.2500000
                       0.0000000  0.0000000  0.0000000     0.2500000  0.2500000  0.2500000
                       0.0000000  0.0000000  0.0000000     0.2500000  0.2500000  0.2500000
                       0.0000000  0.0000000  0.0000000     0.2500000  0.2500000  0.2500000
                       0.0000000  0.0000000  0.0000000     0.2500000  0.2500000  0.2500000
                       0.0000000  0.0000000  0.0000000     0.2500000  0.2500000  0.2500000
                       0.0000000  0.0000000  0.0000000     0.2500000  0.2500000  0.2500000
                       0.0000000  0.0000000  0.0000000     0.2500000  0.2500000  0.2500000
                       0.0000000  0.0000000  0.0000000     0.2500000  0.2500000  0.2500000
                       0.0000000  0.0000000  0.0000000     0.2500000  0.2500000  0.2500000
                       0.0000000  0.0000000  0.0000000     0.2500000  0.2500000  0.2500000
                       0.0000000  0.0000000  0.0000000     0.2500000  0.2500000  0.2500000
                       0.0000000  0.0000000  0.0000000     0.2500000  0.2500000  0.2500000
                       0.0000000  0.0000000  0.0000000     0.2500000  0.2500000  0.2500000
                       0.0000000  0.0000000  0.0000000     0.2500000  0.2500000  0.2500000
                       0.0000000  0.0000000  0.0000000     0.2500000  0.2500000  0.2500000
           toldfe      1.00000000E-06 Hartree
            typat      1  1
              wtk1       0.75000    0.25000
              wtk2       0.02778    0.02778    0.02778    0.05556    0.02778    0.02778
                         0.05556    0.02778    0.05556    0.05556    0.02778    0.02778
                         0.02778    0.05556    0.02778    0.05556    0.05556    0.05556
                         0.02778    0.02778    0.02778    0.02778    0.02778    0.05556
                         0.05556    0.00926    0.00926    0.00926
              wtk3       0.01172    0.01172    0.01172    0.02344    0.01172    0.01172
                         0.02344    0.01172    0.02344    0.02344    0.01172    0.01172
                         0.02344    0.01172    0.02344    0.02344    0.01172    0.02344
                         0.02344    0.02344    0.01172    0.01172    0.01172    0.02344
                         0.01172    0.02344    0.02344    0.02344    0.01172    0.02344
                         0.02344    0.02344    0.02344    0.01172    0.01172    0.01172
                         0.01172    0.01172    0.02344    0.02344    0.01172    0.02344
                         0.02344    0.02344    0.02344    0.02344    0.01172    0.01172
                         0.01172    0.01172
              wtk4       0.00600    0.00600    0.00600    0.01200    0.00600    0.00600
                         0.01200    0.00600    0.01200    0.01200    0.00600    0.00600
                         0.01200    0.00600    0.01200    0.01200    0.00600    0.01200
                         0.01200    0.01200    0.00600    0.00600    0.01200    0.00600
                         0.01200    0.01200    0.00600    0.01200    0.01200    0.01200
                         0.00600    0.01200    0.01200    0.01200    0.01200    0.00600
                         0.00600    0.00600    0.01200    0.00600    0.01200    0.01200
                         0.01200    0.00600    0.01200    0.01200    0.01200    0.01200
                         0.00600    0.01200
              wtk5       0.00347    0.00347    0.00347    0.00694    0.00347    0.00347
                         0.00694    0.00347    0.00694    0.00694    0.00347    0.00347
                         0.00694    0.00347    0.00694    0.00694    0.00347    0.00694
                         0.00694    0.00694    0.00347    0.00347    0.00694    0.00347
                         0.00694    0.00694    0.00347    0.00694    0.00694    0.00694
                         0.00347    0.00694    0.00694    0.00694    0.00694    0.00347
                         0.00347    0.00694    0.00347    0.00694    0.00694    0.00347
                         0.00694    0.00694    0.00694    0.00347    0.00694    0.00694
                         0.00694    0.00694
                       outvars : Printing only first  50 k-points.
           xangst1     9.0978802060E-32  9.0978802060E-32 -9.0974103524E-32
                       1.3512813407E+00  1.3512813407E+00  1.3512813407E+00
           xangst2     0.0000000000E+00  0.0000000000E+00  0.0000000000E+00
                       1.3494175618E+00  1.3494175618E+00  1.3494175618E+00
           xangst3     3.4189807076E-32 -1.1499060898E-31  1.9693207913E-31
                       1.3494344420E+00  1.3494344420E+00  1.3494344420E+00
           xangst4     0.0000000000E+00  0.0000000000E+00  0.0000000000E+00
                       1.3494343105E+00  1.3494343105E+00  1.3494343105E+00
           xangst5     0.0000000000E+00  0.0000000000E+00  0.0000000000E+00
                       1.3494359292E+00  1.3494359292E+00  1.3494359292E+00
            xcart1     1.7192501979E-31  1.7192501979E-31 -1.7191614085E-31
                       2.5535516625E+00  2.5535516625E+00  2.5535516625E+00
            xcart2     0.0000000000E+00  0.0000000000E+00  0.0000000000E+00
                       2.5500296308E+00  2.5500296308E+00  2.5500296308E+00
            xcart3     6.4609371910E-32 -2.1730075882E-31  3.7214769634E-31
                       2.5500615297E+00  2.5500615297E+00  2.5500615297E+00
            xcart4     0.0000000000E+00  0.0000000000E+00  0.0000000000E+00
                       2.5500612812E+00  2.5500612812E+00  2.5500612812E+00
            xcart5     0.0000000000E+00  0.0000000000E+00  0.0000000000E+00
                       2.5500643400E+00  2.5500643400E+00  2.5500643400E+00
             xred     -1.6831081134E-32 -1.6831081134E-32  5.0494981951E-32
                       2.5000000000E-01  2.5000000000E-01  2.5000000000E-01
            znucl       14.00000

================================================================================
  

================================================================================

 Suggested references for the acknowledgment of ABINIT usage.

 The users of ABINIT have little formal obligations with respect to the ABINIT group
 (those specified in the GNU General Public License, http://www.gnu.org/copyleft/gpl.txt).
 However, it is common practice in the scientific literature,
 to acknowledge the efforts of people that have made the research possible.
 In this spirit, please find below suggested citations of work written by ABINIT developers,
 corresponding to implementations inside of ABINIT that you have used in the present run.
 Note also that it will be of great value to readers of publications presenting these results,
 to read papers enabling them to understand the theoretical formalism and details
 of the ABINIT implementation.
 For information on why they are suggested, see also http://www.abinit.org/about/?text=acknowledgments.
-
- [1] Recent developments in the ABINIT software package
- X.Gonze, F.Jollet, F.Abreu Araujo, D.Adams, B.Amadon, T.Applencourt,
- C.Audouze, J.-M.Beuken, J.Bieder, A.Bokhanchuk, E.Bousquet, F.Bruneval
- D.Caliste, M.Cote, F.Dahm, F.Da Pieve, M.Delaveau, M.Di Gennaro,
- B.Dorado, C.Espejo, G.Geneste, L.Genovese, A.Gerossier, M.Giantomassi,
- Y.Gillet, D.R.Hamann, L.He, G.Jomard, J.Laflamme Janssen, S.Le Roux,
- A.Levitt, A.Lherbier, F.Liu, I.Lukacevic, A.Martin, C.Martins,
- M.J.T.Oliveira, S.Ponce, Y.Pouillon, T.Rangel, G.-M.Rignanese,
- A.H.Romero, B.Rousseau, O.Rubel, A.A.Shukri, M.Stankovski, M.Torrent,
- Comment : the fourth generic paper describing the ABINIT project.
- Note that a version of this paper, that is not formatted for Computer Phys. Comm. 
- is available at http://www.abinit.org/about/ABINIT16.pdf .
- The licence allows the authors to put it on the Web.
-
- [2] ABINIT : First-principles approach of materials and nanosystem properties.
- X. Gonze, B. Amadon, P.-M. Anglade, J.-M. Beuken, F. Bottin, P. Boulanger, F. Bruneval,
- D. Caliste, R. Caracas, M. Cote, T. Deutsch, L. Genovese, Ph. Ghosez, M. Giantomassi
- S. Goedecker, D.R. Hamann, P. Hermet, F. Jollet, G. Jomard, S. Leroux, M. Mancini, S. Mazevet,
- M.J.T. Oliveira, G. Onida, Y. Pouillon, T. Rangel, G.-M. Rignanese, D. Sangalli, R. Shaltaf,
- M. Torrent, M.J. Verstraete, G. Zerah, J.W. Zwanziger
- Computer Phys. Comm. 180, 2582-2615 (2009).
- Comment : the third generic paper describing the ABINIT project.
- Note that a version of this paper, that is not formatted for Computer Phys. Comm. 
- is available at http://www.abinit.org/about/ABINIT_CPC_v10.pdf .
- The licence allows the authors to put it on the Web.
-
- [3] A brief introduction to the ABINIT software package.
- X. Gonze, G.-M. Rignanese, M. Verstraete, J.-M. Beuken, Y. Pouillon, R. Caracas, F. Jollet,
- M. Torrent, G. Zerah, M. Mikami, Ph. Ghosez, M. Veithen, J.-Y. Raty, V. Olevano, F. Bruneval,
- L. Reining, R. Godby, G. Onida, D.R. Hamann, and D.C. Allan.
- Z. Kristallogr. 220, 558-562 (2005).
- Comment : the second generic paper describing the ABINIT project. Note that this paper
- should be cited especially if you are using the GW part of ABINIT, as several authors
- of this part are not in the list of authors of the first or third paper.
- The .pdf of the latter paper is available at http://www.abinit.org/about/zfk_0505-06_558-562.pdf.
- Note that it should not redistributed (Copyright by Oldenburg Wissenshaftverlag,
- the licence allows the authors to put it on the Web).
-
- And optionally:
-
- [4] First-principles computation of material properties : the ABINIT software project. 
- X. Gonze, J.-M. Beuken, R. Caracas, F. Detraux, M. Fuchs, G.-M. Rignanese, L. Sindic,
- M. Verstraete, G. Zerah, F. Jollet, M. Torrent, A. Roy, M. Mikami, Ph. Ghosez, J.-Y. Raty, D.C. Allan.
- Computational Materials Science 25, 478-492 (2002). http://dx.doi.org/10.1016/S0927-0256(02)00325-7
- Comment : the original paper describing the ABINIT project.
  Asked to delete not existent file: Si__STATUS
 Proc.   0 individual time (sec): cpu=        784.0  wall=        790.8

 Calculation completed.
.Delivered  12 WARNINGs and   0 COMMENTs to log file.

--- !FinalSummary
program: abinit
version: 8.0.7
start_datetime: Thu Apr 26 11:53:16 2018
end_datetime: Thu Apr 26 12:06:28 2018
overall_cpu_time:         784.0
overall_wall_time:         790.8
exit_requested_by_user: no 
timelimit: 0
pseudos: 
    Si  : 3916b143991b1cfa1542b130be320e5e
usepaw: 0
mpi_procs: 1
omp_threads: 1
num_warnings: 12
num_comments: 0
...
