
.Version 8.0.7 of ABINIT 
.(MPI version, prepared for a x86_64_linux_gnu4.9 computer) 

.Copyright (C) 1998-2016 ABINIT group . 
 ABINIT comes with ABSOLUTELY NO WARRANTY.
 It is free software, and you are welcome to redistribute it
 under certain conditions (GNU General Public License,
 see ~abinit/COPYING or http://www.gnu.org/copyleft/gpl.txt).

 ABINIT is a project of the Universite Catholique de Louvain,
 Corning Inc. and other collaborators, see ~abinit/doc/developers/contributors.txt .
 Please read ~abinit/doc/users/acknowledgments.html for suggested
 acknowledgments of the ABINIT effort.
 For more information, see http://www.abinit.org .

.Starting date : Thu 26 Apr 2018.
- ( at 11h53 )
  
- input  file    -> Si_in.txt
- output file    -> Si_out.txt
- root for input  files -> Si_i
- root for output files -> Si_o


 DATASET    1 : space group Fd -3 m (#227); Bravais cF (face-center cubic)
================================================================================
 Values of the parameters that define the memory need for DATASET  1.
     intxc =       0    ionmov =       3      iscf =       7    lmnmax =       2
     lnmax =       2     mgfft =      50  mpssoang =       3    mqgrid =    3001
     natom =       2  nloc_mem =       1    nspden =       1   nspinor =       1
    nsppol =       1      nsym =      48    n1xccc =    2501    ntypat =       1
    occopt =       1   xclevel =       1
-    mband =           5        mffmem =           1         mkmem =           2
       mpw =        5165          nfft =      125000          nkpt =           2
================================================================================
P This job should need less than                      37.537 Mbytes of memory.
  Rough estimation (10% accuracy) of disk space for files :
_ WF disk file :      0.790 Mbytes ; DEN or POT disk file :      0.956 Mbytes.
================================================================================


 DATASET    2 : space group Fd -3 m (#227); Bravais cF (face-center cubic)
================================================================================
 Values of the parameters that define the memory need for DATASET  2.
     intxc =       0    ionmov =       3      iscf =       7    lmnmax =       2
     lnmax =       2     mgfft =      50  mpssoang =       3    mqgrid =    3001
     natom =       2  nloc_mem =       1    nspden =       1   nspinor =       1
    nsppol =       1      nsym =      48    n1xccc =    2501    ntypat =       1
    occopt =       1   xclevel =       1
-    mband =           5        mffmem =           1         mkmem =          28
       mpw =        5171          nfft =      125000          nkpt =          28
================================================================================
P This job should need less than                      49.356 Mbytes of memory.
  Rough estimation (10% accuracy) of disk space for files :
_ WF disk file :     11.048 Mbytes ; DEN or POT disk file :      0.956 Mbytes.
================================================================================


 DATASET    3 : space group Fd -3 m (#227); Bravais cF (face-center cubic)
================================================================================
 Values of the parameters that define the memory need for DATASET  3.
     intxc =       0    ionmov =       3      iscf =       7    lmnmax =       2
     lnmax =       2     mgfft =      50  mpssoang =       3    mqgrid =    3001
     natom =       2  nloc_mem =       1    nspden =       1   nspinor =       1
    nsppol =       1      nsym =      48    n1xccc =    2501    ntypat =       1
    occopt =       1   xclevel =       1
-    mband =           5        mffmem =           1         mkmem =          60
       mpw =        5171          nfft =      125000          nkpt =          60
================================================================================
P This job should need less than                      63.899 Mbytes of memory.
  Rough estimation (10% accuracy) of disk space for files :
_ WF disk file :     23.673 Mbytes ; DEN or POT disk file :      0.956 Mbytes.
================================================================================


 DATASET    4 : space group Fd -3 m (#227); Bravais cF (face-center cubic)
================================================================================
 Values of the parameters that define the memory need for DATASET  4.
     intxc =       0    ionmov =       3      iscf =       7    lmnmax =       2
     lnmax =       2     mgfft =      50  mpssoang =       3    mqgrid =    3001
     natom =       2  nloc_mem =       1    nspden =       1   nspinor =       1
    nsppol =       1      nsym =      48    n1xccc =    2501    ntypat =       1
    occopt =       1   xclevel =       1
-    mband =           5        mffmem =           1         mkmem =         110
       mpw =        5173          nfft =      125000          nkpt =         110
================================================================================
P This job should need less than                      86.641 Mbytes of memory.
  Rough estimation (10% accuracy) of disk space for files :
_ WF disk file :     43.416 Mbytes ; DEN or POT disk file :      0.956 Mbytes.
================================================================================


 DATASET    5 : space group Fd -3 m (#227); Bravais cF (face-center cubic)
================================================================================
 Values of the parameters that define the memory need for DATASET  5.
     intxc =       0    ionmov =       3      iscf =       7    lmnmax =       2
     lnmax =       2     mgfft =      50  mpssoang =       3    mqgrid =    3001
     natom =       2  nloc_mem =       1    nspden =       1   nspinor =       1
    nsppol =       1      nsym =      48    n1xccc =    2501    ntypat =       1
    occopt =       1   xclevel =       1
-    mband =           5        mffmem =           1         mkmem =         182
       mpw =        5172          nfft =      125000          nkpt =         182
================================================================================
P This job should need less than                     119.359 Mbytes of memory.
  Rough estimation (10% accuracy) of disk space for files :
_ WF disk file :     71.818 Mbytes ; DEN or POT disk file :      0.956 Mbytes.
================================================================================

--------------------------------------------------------------------------------
------------- Echo of variables that govern the present computation ------------
--------------------------------------------------------------------------------
-
- outvars: echo of selected default values                                      
-   iomode0 =  0 , fftalg0 =112 , wfoptalg0 =  0
-
- outvars: echo of global parameters not present in the input file              
-  max_nthreads =    0
-
 -outvars: echo values of preprocessed input variables --------
            acell      1.0180000000E+01  1.0180000000E+01  1.0180000000E+01 Bohr
              amu      2.80855000E+01
           diemac      1.20000000E+01
          dilatmx      1.05000000E+00
             ecut      5.00000000E+01 Hartree
           ecutsm      5.00000000E-01 Hartree
-          fftalg         112
           getwfk          -1
           ionmov           3
           jdtset        1    2    3    4    5
              kpt1    -2.50000000E-01  5.00000000E-01  0.00000000E+00
                      -2.50000000E-01  0.00000000E+00  0.00000000E+00
              kpt2    -8.33333333E-02 -1.66666667E-01  0.00000000E+00
                      -8.33333333E-02 -3.33333333E-01  0.00000000E+00
                      -1.66666667E-01 -2.50000000E-01  0.00000000E+00
                      -8.33333333E-02 -2.50000000E-01  8.33333333E-02
                      -8.33333333E-02  5.00000000E-01  0.00000000E+00
                      -1.66666667E-01 -4.16666667E-01  0.00000000E+00
                      -8.33333333E-02 -4.16666667E-01  8.33333333E-02
                      -2.50000000E-01 -3.33333333E-01  0.00000000E+00
                      -1.66666667E-01 -3.33333333E-01  8.33333333E-02
                      -8.33333333E-02 -3.33333333E-01  1.66666667E-01
                      -8.33333333E-02  3.33333333E-01  0.00000000E+00
                      -1.66666667E-01  4.16666667E-01  0.00000000E+00
                      -2.50000000E-01  5.00000000E-01  0.00000000E+00
                      -1.66666667E-01  5.00000000E-01  8.33333333E-02
                      -3.33333333E-01 -4.16666667E-01  0.00000000E+00
                      -2.50000000E-01 -4.16666667E-01  8.33333333E-02
                      -1.66666667E-01 -4.16666667E-01  1.66666667E-01
                      -8.33333333E-02 -4.16666667E-01  2.50000000E-01
                      -8.33333333E-02  1.66666667E-01  0.00000000E+00
                      -1.66666667E-01  2.50000000E-01  0.00000000E+00
                      -2.50000000E-01  3.33333333E-01  0.00000000E+00
                      -3.33333333E-01  4.16666667E-01  0.00000000E+00
                      -4.16666667E-01  5.00000000E-01  0.00000000E+00
                      -3.33333333E-01  5.00000000E-01  8.33333333E-02
                      -2.50000000E-01  5.00000000E-01  1.66666667E-01
                      -8.33333333E-02  0.00000000E+00  0.00000000E+00
                      -2.50000000E-01  0.00000000E+00  0.00000000E+00
                      -4.16666667E-01  0.00000000E+00  0.00000000E+00
              kpt3    -6.25000000E-02 -1.25000000E-01  0.00000000E+00
                      -6.25000000E-02 -2.50000000E-01  0.00000000E+00
                      -1.25000000E-01 -1.87500000E-01  0.00000000E+00
                      -6.25000000E-02 -1.87500000E-01  6.25000000E-02
                      -6.25000000E-02 -3.75000000E-01  0.00000000E+00
                      -1.25000000E-01 -3.12500000E-01  0.00000000E+00
                      -6.25000000E-02 -3.12500000E-01  6.25000000E-02
                      -1.87500000E-01 -2.50000000E-01  0.00000000E+00
                      -1.25000000E-01 -2.50000000E-01  6.25000000E-02
                      -6.25000000E-02 -2.50000000E-01  1.25000000E-01
                      -6.25000000E-02  5.00000000E-01  0.00000000E+00
                      -1.25000000E-01 -4.37500000E-01  0.00000000E+00
                      -6.25000000E-02 -4.37500000E-01  6.25000000E-02
                      -1.87500000E-01 -3.75000000E-01  0.00000000E+00
                      -1.25000000E-01 -3.75000000E-01  6.25000000E-02
                      -6.25000000E-02 -3.75000000E-01  1.25000000E-01
                      -2.50000000E-01 -3.12500000E-01  0.00000000E+00
                      -1.87500000E-01 -3.12500000E-01  6.25000000E-02
                      -1.25000000E-01 -3.12500000E-01  1.25000000E-01
                      -6.25000000E-02 -3.12500000E-01  1.87500000E-01
                      -6.25000000E-02  3.75000000E-01  0.00000000E+00
                      -1.25000000E-01  4.37500000E-01  0.00000000E+00
                      -1.87500000E-01  5.00000000E-01  0.00000000E+00
                      -1.25000000E-01  5.00000000E-01  6.25000000E-02
                      -2.50000000E-01 -4.37500000E-01  0.00000000E+00
                      -1.87500000E-01 -4.37500000E-01  6.25000000E-02
                      -1.25000000E-01 -4.37500000E-01  1.25000000E-01
                      -6.25000000E-02 -4.37500000E-01  1.87500000E-01
                      -3.12500000E-01 -3.75000000E-01  0.00000000E+00
                      -2.50000000E-01 -3.75000000E-01  6.25000000E-02
                      -1.87500000E-01 -3.75000000E-01  1.25000000E-01
                      -1.25000000E-01 -3.75000000E-01  1.87500000E-01
                      -6.25000000E-02 -3.75000000E-01  2.50000000E-01
                      -6.25000000E-02  2.50000000E-01  0.00000000E+00
                      -1.25000000E-01  3.12500000E-01  0.00000000E+00
                      -1.87500000E-01  3.75000000E-01  0.00000000E+00
                      -2.50000000E-01  4.37500000E-01  0.00000000E+00
                      -3.12500000E-01  5.00000000E-01  0.00000000E+00
                      -2.50000000E-01  5.00000000E-01  6.25000000E-02
                      -1.87500000E-01  5.00000000E-01  1.25000000E-01
                      -3.75000000E-01 -4.37500000E-01  0.00000000E+00
                      -3.12500000E-01 -4.37500000E-01  6.25000000E-02
                      -2.50000000E-01 -4.37500000E-01  1.25000000E-01
                      -1.87500000E-01 -4.37500000E-01  1.87500000E-01
                      -1.25000000E-01 -4.37500000E-01  2.50000000E-01
                      -6.25000000E-02 -4.37500000E-01  3.12500000E-01
                      -6.25000000E-02  1.25000000E-01  0.00000000E+00
                      -1.25000000E-01  1.87500000E-01  0.00000000E+00
                      -1.87500000E-01  2.50000000E-01  0.00000000E+00
                      -2.50000000E-01  3.12500000E-01  0.00000000E+00
              kpt4    -5.00000000E-02 -1.00000000E-01  0.00000000E+00
                      -5.00000000E-02 -2.00000000E-01  0.00000000E+00
                      -1.00000000E-01 -1.50000000E-01  0.00000000E+00
                      -5.00000000E-02 -1.50000000E-01  5.00000000E-02
                      -5.00000000E-02 -3.00000000E-01  0.00000000E+00
                      -1.00000000E-01 -2.50000000E-01  0.00000000E+00
                      -5.00000000E-02 -2.50000000E-01  5.00000000E-02
                      -1.50000000E-01 -2.00000000E-01  0.00000000E+00
                      -1.00000000E-01 -2.00000000E-01  5.00000000E-02
                      -5.00000000E-02 -2.00000000E-01  1.00000000E-01
                      -5.00000000E-02 -4.00000000E-01  0.00000000E+00
                      -1.00000000E-01 -3.50000000E-01  0.00000000E+00
                      -5.00000000E-02 -3.50000000E-01  5.00000000E-02
                      -1.50000000E-01 -3.00000000E-01  0.00000000E+00
                      -1.00000000E-01 -3.00000000E-01  5.00000000E-02
                      -5.00000000E-02 -3.00000000E-01  1.00000000E-01
                      -2.00000000E-01 -2.50000000E-01  0.00000000E+00
                      -1.50000000E-01 -2.50000000E-01  5.00000000E-02
                      -1.00000000E-01 -2.50000000E-01  1.00000000E-01
                      -5.00000000E-02 -2.50000000E-01  1.50000000E-01
                      -5.00000000E-02  5.00000000E-01  0.00000000E+00
                      -1.00000000E-01 -4.50000000E-01  0.00000000E+00
                      -5.00000000E-02 -4.50000000E-01  5.00000000E-02
                      -1.50000000E-01 -4.00000000E-01  0.00000000E+00
                      -1.00000000E-01 -4.00000000E-01  5.00000000E-02
                      -5.00000000E-02 -4.00000000E-01  1.00000000E-01
                      -2.00000000E-01 -3.50000000E-01  0.00000000E+00
                      -1.50000000E-01 -3.50000000E-01  5.00000000E-02
                      -1.00000000E-01 -3.50000000E-01  1.00000000E-01
                      -5.00000000E-02 -3.50000000E-01  1.50000000E-01
                      -2.50000000E-01 -3.00000000E-01  0.00000000E+00
                      -2.00000000E-01 -3.00000000E-01  5.00000000E-02
                      -1.50000000E-01 -3.00000000E-01  1.00000000E-01
                      -1.00000000E-01 -3.00000000E-01  1.50000000E-01
                      -5.00000000E-02 -3.00000000E-01  2.00000000E-01
                      -5.00000000E-02  4.00000000E-01  0.00000000E+00
                      -1.00000000E-01  4.50000000E-01  0.00000000E+00
                      -1.50000000E-01  5.00000000E-01  0.00000000E+00
                      -1.00000000E-01  5.00000000E-01  5.00000000E-02
                      -2.00000000E-01 -4.50000000E-01  0.00000000E+00
                      -1.50000000E-01 -4.50000000E-01  5.00000000E-02
                      -1.00000000E-01 -4.50000000E-01  1.00000000E-01
                      -5.00000000E-02 -4.50000000E-01  1.50000000E-01
                      -2.50000000E-01 -4.00000000E-01  0.00000000E+00
                      -2.00000000E-01 -4.00000000E-01  5.00000000E-02
                      -1.50000000E-01 -4.00000000E-01  1.00000000E-01
                      -1.00000000E-01 -4.00000000E-01  1.50000000E-01
                      -5.00000000E-02 -4.00000000E-01  2.00000000E-01
                      -3.00000000E-01 -3.50000000E-01  0.00000000E+00
                      -2.50000000E-01 -3.50000000E-01  5.00000000E-02
              kpt5    -4.16666667E-02 -8.33333333E-02  0.00000000E+00
                      -4.16666667E-02 -1.66666667E-01  0.00000000E+00
                      -8.33333333E-02 -1.25000000E-01  0.00000000E+00
                      -4.16666667E-02 -1.25000000E-01  4.16666667E-02
                      -4.16666667E-02 -2.50000000E-01  0.00000000E+00
                      -8.33333333E-02 -2.08333333E-01  0.00000000E+00
                      -4.16666667E-02 -2.08333333E-01  4.16666667E-02
                      -1.25000000E-01 -1.66666667E-01  0.00000000E+00
                      -8.33333333E-02 -1.66666667E-01  4.16666667E-02
                      -4.16666667E-02 -1.66666667E-01  8.33333333E-02
                      -4.16666667E-02 -3.33333333E-01  0.00000000E+00
                      -8.33333333E-02 -2.91666667E-01  0.00000000E+00
                      -4.16666667E-02 -2.91666667E-01  4.16666667E-02
                      -1.25000000E-01 -2.50000000E-01  0.00000000E+00
                      -8.33333333E-02 -2.50000000E-01  4.16666667E-02
                      -4.16666667E-02 -2.50000000E-01  8.33333333E-02
                      -1.66666667E-01 -2.08333333E-01  0.00000000E+00
                      -1.25000000E-01 -2.08333333E-01  4.16666667E-02
                      -8.33333333E-02 -2.08333333E-01  8.33333333E-02
                      -4.16666667E-02 -2.08333333E-01  1.25000000E-01
                      -4.16666667E-02 -4.16666667E-01  0.00000000E+00
                      -8.33333333E-02 -3.75000000E-01  0.00000000E+00
                      -4.16666667E-02 -3.75000000E-01  4.16666667E-02
                      -1.25000000E-01 -3.33333333E-01  0.00000000E+00
                      -8.33333333E-02 -3.33333333E-01  4.16666667E-02
                      -4.16666667E-02 -3.33333333E-01  8.33333333E-02
                      -1.66666667E-01 -2.91666667E-01  0.00000000E+00
                      -1.25000000E-01 -2.91666667E-01  4.16666667E-02
                      -8.33333333E-02 -2.91666667E-01  8.33333333E-02
                      -4.16666667E-02 -2.91666667E-01  1.25000000E-01
                      -2.08333333E-01 -2.50000000E-01  0.00000000E+00
                      -1.66666667E-01 -2.50000000E-01  4.16666667E-02
                      -1.25000000E-01 -2.50000000E-01  8.33333333E-02
                      -8.33333333E-02 -2.50000000E-01  1.25000000E-01
                      -4.16666667E-02 -2.50000000E-01  1.66666667E-01
                      -4.16666667E-02  5.00000000E-01  0.00000000E+00
                      -8.33333333E-02 -4.58333333E-01  0.00000000E+00
                      -4.16666667E-02 -4.58333333E-01  4.16666667E-02
                      -1.25000000E-01 -4.16666667E-01  0.00000000E+00
                      -8.33333333E-02 -4.16666667E-01  4.16666667E-02
                      -4.16666667E-02 -4.16666667E-01  8.33333333E-02
                      -1.66666667E-01 -3.75000000E-01  0.00000000E+00
                      -1.25000000E-01 -3.75000000E-01  4.16666667E-02
                      -8.33333333E-02 -3.75000000E-01  8.33333333E-02
                      -4.16666667E-02 -3.75000000E-01  1.25000000E-01
                      -2.08333333E-01 -3.33333333E-01  0.00000000E+00
                      -1.66666667E-01 -3.33333333E-01  4.16666667E-02
                      -1.25000000E-01 -3.33333333E-01  8.33333333E-02
                      -8.33333333E-02 -3.33333333E-01  1.25000000E-01
                      -4.16666667E-02 -3.33333333E-01  1.66666667E-01
                       outvar_i_n : Printing only first  50 k-points.
         kptrlatt1       2   -2    2     -2    2    2     -2   -2    2
         kptrlatt2       6   -6    6     -6    6    6     -6   -6    6
         kptrlatt3       8   -8    8     -8    8    8     -8   -8    8
         kptrlatt4      10  -10   10    -10   10   10    -10  -10   10
         kptrlatt5      12  -12   12    -12   12   12    -12  -12   12
          kptrlen1     2.03600000E+01
          kptrlen2     6.10800000E+01
          kptrlen3     8.14400000E+01
          kptrlen4     1.01800000E+02
          kptrlen5     1.22160000E+02
P           mkmem1          2
P           mkmem2         28
P           mkmem3         60
P           mkmem4        110
P           mkmem5        182
            natom           2
            nband1          5
            nband2          5
            nband3          5
            nband4          5
            nband5          5
           ndtset           5
            ngfft          50      50      50
             nkpt1          2
             nkpt2         28
             nkpt3         60
             nkpt4        110
             nkpt5        182
            nstep          10
             nsym          48
            ntime          10
           ntypat           1
              occ1     2.000000  2.000000  2.000000  2.000000  0.000000
              occ2     2.000000  2.000000  2.000000  2.000000  0.000000
              occ3     2.000000  2.000000  2.000000  2.000000  0.000000
              occ4     2.000000  2.000000  2.000000  2.000000  0.000000
              occ5     2.000000  2.000000  2.000000  2.000000  0.000000
          optcell           1
            rprim      0.0000000000E+00  5.0000000000E-01  5.0000000000E-01
                       5.0000000000E-01  0.0000000000E+00  5.0000000000E-01
                       5.0000000000E-01  5.0000000000E-01  0.0000000000E+00
           shiftk      5.00000000E-01  5.00000000E-01  5.00000000E-01
          spgroup         227
           symrel      1  0  0   0  1  0   0  0  1      -1  0  0   0 -1  0   0  0 -1
                       0 -1  1   0 -1  0   1 -1  0       0  1 -1   0  1  0  -1  1  0
                      -1  0  0  -1  0  1  -1  1  0       1  0  0   1  0 -1   1 -1  0
                       0  1 -1   1  0 -1   0  0 -1       0 -1  1  -1  0  1   0  0  1
                      -1  0  0  -1  1  0  -1  0  1       1  0  0   1 -1  0   1  0 -1
                       0 -1  1   1 -1  0   0 -1  0       0  1 -1  -1  1  0   0  1  0
                       1  0  0   0  0  1   0  1  0      -1  0  0   0  0 -1   0 -1  0
                       0  1 -1   0  0 -1   1  0 -1       0 -1  1   0  0  1  -1  0  1
                      -1  0  1  -1  1  0  -1  0  0       1  0 -1   1 -1  0   1  0  0
                       0 -1  0   1 -1  0   0 -1  1       0  1  0  -1  1  0   0  1 -1
                       1  0 -1   0  0 -1   0  1 -1      -1  0  1   0  0  1   0 -1  1
                       0  1  0   0  0  1   1  0  0       0 -1  0   0  0 -1  -1  0  0
                       1  0 -1   0  1 -1   0  0 -1      -1  0  1   0 -1  1   0  0  1
                       0 -1  0   0 -1  1   1 -1  0       0  1  0   0  1 -1  -1  1  0
                      -1  0  1  -1  0  0  -1  1  0       1  0 -1   1  0  0   1 -1  0
                       0  1  0   1  0  0   0  0  1       0 -1  0  -1  0  0   0  0 -1
                       0  0 -1   0  1 -1   1  0 -1       0  0  1   0 -1  1  -1  0  1
                       1 -1  0   0 -1  1   0 -1  0      -1  1  0   0  1 -1   0  1  0
                       0  0  1   1  0  0   0  1  0       0  0 -1  -1  0  0   0 -1  0
                      -1  1  0  -1  0  0  -1  0  1       1 -1  0   1  0  0   1  0 -1
                       0  0  1   0  1  0   1  0  0       0  0 -1   0 -1  0  -1  0  0
                       1 -1  0   0 -1  0   0 -1  1      -1  1  0   0  1  0   0  1 -1
                       0  0 -1   1  0 -1   0  1 -1       0  0  1  -1  0  1   0 -1  1
                      -1  1  0  -1  0  1  -1  0  0       1 -1  0   1  0 -1   1  0  0
            tnons      0.0000000  0.0000000  0.0000000     0.2500000  0.2500000  0.2500000
                       0.0000000  0.0000000  0.0000000     0.2500000  0.2500000  0.2500000
                       0.0000000  0.0000000  0.0000000     0.2500000  0.2500000  0.2500000
                       0.0000000  0.0000000  0.0000000     0.2500000  0.2500000  0.2500000
                       0.0000000  0.0000000  0.0000000     0.2500000  0.2500000  0.2500000
                       0.0000000  0.0000000  0.0000000     0.2500000  0.2500000  0.2500000
                       0.0000000  0.0000000  0.0000000     0.2500000  0.2500000  0.2500000
                       0.0000000  0.0000000  0.0000000     0.2500000  0.2500000  0.2500000
                       0.0000000  0.0000000  0.0000000     0.2500000  0.2500000  0.2500000
                       0.0000000  0.0000000  0.0000000     0.2500000  0.2500000  0.2500000
                       0.0000000  0.0000000  0.0000000     0.2500000  0.2500000  0.2500000
                       0.0000000  0.0000000  0.0000000     0.2500000  0.2500000  0.2500000
                       0.0000000  0.0000000  0.0000000     0.2500000  0.2500000  0.2500000
                       0.0000000  0.0000000  0.0000000     0.2500000  0.2500000  0.2500000
                       0.0000000  0.0000000  0.0000000     0.2500000  0.2500000  0.2500000
                       0.0000000  0.0000000  0.0000000     0.2500000  0.2500000  0.2500000
                       0.0000000  0.0000000  0.0000000     0.2500000  0.2500000  0.2500000
                       0.0000000  0.0000000  0.0000000     0.2500000  0.2500000  0.2500000
                       0.0000000  0.0000000  0.0000000     0.2500000  0.2500000  0.2500000
                       0.0000000  0.0000000  0.0000000     0.2500000  0.2500000  0.2500000
                       0.0000000  0.0000000  0.0000000     0.2500000  0.2500000  0.2500000
                       0.0000000  0.0000000  0.0000000     0.2500000  0.2500000  0.2500000
                       0.0000000  0.0000000  0.0000000     0.2500000  0.2500000  0.2500000
                       0.0000000  0.0000000  0.0000000     0.2500000  0.2500000  0.2500000
           toldfe      1.00000000E-06 Hartree
            typat      1  1
              wtk1       0.75000    0.25000
              wtk2       0.02778    0.02778    0.02778    0.05556    0.02778    0.02778
                         0.05556    0.02778    0.05556    0.05556    0.02778    0.02778
                         0.02778    0.05556    0.02778    0.05556    0.05556    0.05556
                         0.02778    0.02778    0.02778    0.02778    0.02778    0.05556
                         0.05556    0.00926    0.00926    0.00926
              wtk3       0.01172    0.01172    0.01172    0.02344    0.01172    0.01172
                         0.02344    0.01172    0.02344    0.02344    0.01172    0.01172
                         0.02344    0.01172    0.02344    0.02344    0.01172    0.02344
                         0.02344    0.02344    0.01172    0.01172    0.01172    0.02344
                         0.01172    0.02344    0.02344    0.02344    0.01172    0.02344
                         0.02344    0.02344    0.02344    0.01172    0.01172    0.01172
                         0.01172    0.01172    0.02344    0.02344    0.01172    0.02344
                         0.02344    0.02344    0.02344    0.02344    0.01172    0.01172
                         0.01172    0.01172
              wtk4       0.00600    0.00600    0.00600    0.01200    0.00600    0.00600
                         0.01200    0.00600    0.01200    0.01200    0.00600    0.00600
                         0.01200    0.00600    0.01200    0.01200    0.00600    0.01200
                         0.01200    0.01200    0.00600    0.00600    0.01200    0.00600
                         0.01200    0.01200    0.00600    0.01200    0.01200    0.01200
                         0.00600    0.01200    0.01200    0.01200    0.01200    0.00600
                         0.00600    0.00600    0.01200    0.00600    0.01200    0.01200
                         0.01200    0.00600    0.01200    0.01200    0.01200    0.01200
                         0.00600    0.01200
              wtk5       0.00347    0.00347    0.00347    0.00694    0.00347    0.00347
                         0.00694    0.00347    0.00694    0.00694    0.00347    0.00347
                         0.00694    0.00347    0.00694    0.00694    0.00347    0.00694
                         0.00694    0.00694    0.00347    0.00347    0.00694    0.00347
                         0.00694    0.00694    0.00347    0.00694    0.00694    0.00694
                         0.00347    0.00694    0.00694    0.00694    0.00694    0.00347
                         0.00347    0.00694    0.00347    0.00694    0.00694    0.00347
                         0.00694    0.00694    0.00694    0.00347    0.00694    0.00694
                         0.00694    0.00694
                       outvars : Printing only first  50 k-points.
           xangst      0.0000000000E+00  0.0000000000E+00  0.0000000000E+00
                       1.3467559959E+00  1.3467559959E+00  1.3467559959E+00
            xcart      0.0000000000E+00  0.0000000000E+00  0.0000000000E+00
                       2.5450000000E+00  2.5450000000E+00  2.5450000000E+00
             xred      0.0000000000E+00  0.0000000000E+00  0.0000000000E+00
                       2.5000000000E-01  2.5000000000E-01  2.5000000000E-01
            znucl       14.00000

================================================================================

 chkinp: Checking input parameters for consistency, jdtset=   1.

 chkinp: Checking input parameters for consistency, jdtset=   2.

 chkinp: Checking input parameters for consistency, jdtset=   3.

 chkinp: Checking input parameters for consistency, jdtset=   4.

 chkinp: Checking input parameters for consistency, jdtset=   5.

================================================================================
== DATASET  1 ==================================================================
-   nproc =    1

 Exchange-correlation functional for the present dataset will be:
  LDA: new Teter (4/93) with spin-polarized option - ixc=1
 Citation for XC functional:
  S. Goedecker, M. Teter, J. Huetter, PRB 54, 1703 (1996)

 Real(R)+Recip(G) space primitive vectors, cartesian coordinates (Bohr,Bohr^-1):
 R(1)=  0.0000000  5.0900000  5.0900000  G(1)= -0.0982318  0.0982318  0.0982318
 R(2)=  5.0900000  0.0000000  5.0900000  G(2)=  0.0982318 -0.0982318  0.0982318
 R(3)=  5.0900000  5.0900000  0.0000000  G(3)=  0.0982318  0.0982318 -0.0982318
 Unit cell volume ucvol=  2.6374446E+02 bohr^3
 Angles (23,13,12)=  6.00000000E+01  6.00000000E+01  6.00000000E+01 degrees

 getcut: wavevector=  0.0000  0.0000  0.0000  ngfft=  50  50  50
         ecut(hartree)=     55.125   => boxcut(ratio)=   2.07908

--- Pseudopotential description ------------------------------------------------
- pspini: atom type   1  psp file is 14si.txt
- pspatm: opening atomic psp file    14si.txt
-  Troullier-Martins psp for element  Si        Thu Oct 27 17:31:21 EDT 1994
- 14.00000   4.00000    940714                znucl, zion, pspdat
    1    1    2    2      2001   0.00000      pspcod,pspxc,lmax,lloc,mmax,r2well
    0   5.907  14.692    1   2.0872718        l,e99.0,e99.9,nproj,rcpsp
   0.00000000   0.00000000   0.00000000   0.00000000     rms, ekb1, ekb2, epsatm
    1   2.617   4.181    1   2.0872718        l,e99.0,e99.9,nproj,rcpsp
   0.00000000   0.00000000   0.00000000   0.00000000     rms, ekb1, ekb2, epsatm
    2   0.000   0.000    0   2.0872718        l,e99.0,e99.9,nproj,rcpsp
   0.00000000   0.00000000   0.00000000   0.00000000     rms, ekb1, ekb2, epsatm
    1.80626423934776    0.22824404341771    1.17378968127746   rchrg,fchrg,qchrg
 pspatm: epsatm=    1.43386982
         --- l  ekb(1:nproj) -->
             0    3.287949
             1    1.849886
 pspatm: atomic psp has been read  and splines computed

   2.29419171E+01                                ecore*ucvol(ha*bohr**3)
--------------------------------------------------------------------------------

_setup2: Arith. and geom. avg. npw (full set) are    5162.750    5162.749

================================================================================

=== [ionmov= 3] Broyden-Fletcher-Goldfard-Shanno method (forces,Tot energy) 
================================================================================

--- Iteration: ( 1/10) Internal Cycle: (1/1)
--------------------------------------------------------------------------------

---SELF-CONSISTENT-FIELD CONVERGENCE--------------------------------------------

     iter   Etot(hartree)      deltaE(h)  residm     vres2
 ETOT  1  -8.8640427736227    -8.864E+00 5.563E-03 1.020E+02
 ETOT  2  -8.8705802857032    -6.538E-03 1.586E-06 2.566E+00
 ETOT  3  -8.8706554492439    -7.516E-05 8.869E-07 5.670E-02
 ETOT  4  -8.8706565646374    -1.115E-06 2.097E-08 2.082E-04
 ETOT  5  -8.8706565704545    -5.817E-09 4.058E-10 1.542E-07
 ETOT  6  -8.8706565704592    -4.741E-12 2.165E-13 9.866E-10

 At SCF step    6, etot is converged : 
  for the second time, diff in etot=  4.741E-12 < toldfe=  1.000E-06

 Cartesian components of stress tensor (hartree/bohr^3)
  sigma(1 1)= -3.37665775E-05  sigma(3 2)=  0.00000000E+00
  sigma(2 2)= -3.37665775E-05  sigma(3 1)=  0.00000000E+00
  sigma(3 3)= -3.37665775E-05  sigma(2 1)=  0.00000000E+00

 Integrated electronic density in atomic spheres:
 ------------------------------------------------
 Atom  Sphere_radius  Integrated_density
    1        2.00000          1.79212417
    2        2.00000          1.80890628

---OUTPUT-----------------------------------------------------------------------

 Cartesian coordinates (xcart) [bohr]
  0.00000000000000E+00  0.00000000000000E+00  0.00000000000000E+00
  2.54500000000000E+00  2.54500000000000E+00  2.54500000000000E+00
 Reduced coordinates (xred)
  0.00000000000000E+00  0.00000000000000E+00  0.00000000000000E+00
  2.50000000000000E-01  2.50000000000000E-01  2.50000000000000E-01
 Cartesian forces (fcart) [Ha/bohr]; max,rms= 0.00000E+00 0.00000E+00 (free atoms)
 -0.00000000000000E+00 -0.00000000000000E+00 -0.00000000000000E+00
 -0.00000000000000E+00 -0.00000000000000E+00 -0.00000000000000E+00
 Reduced forces (fred)
  0.00000000000000E+00  0.00000000000000E+00  0.00000000000000E+00
  0.00000000000000E+00  0.00000000000000E+00  0.00000000000000E+00
 Scale of Primitive Cell (acell) [bohr]
  1.01800000000000E+01  1.01800000000000E+01  1.01800000000000E+01
 Real space primitive translations (rprimd) [bohr]
  0.00000000000000E+00  5.09000000000000E+00  5.09000000000000E+00
  5.09000000000000E+00  0.00000000000000E+00  5.09000000000000E+00
  5.09000000000000E+00  5.09000000000000E+00  0.00000000000000E+00
 Unitary Cell Volume (ucvol) [Bohr^3]=  2.63744458000000E+02
 Angles (23,13,12)= [degrees]
  6.00000000000000E+01  6.00000000000000E+01  6.00000000000000E+01
 Lengths [Bohr]
  7.19834703247905E+00  7.19834703247905E+00  7.19834703247905E+00
 Stress tensor in cartesian coordinates (strten) [Ha/bohr^3]
 -3.37665774812072E-05  0.00000000000000E+00  0.00000000000000E+00
  0.00000000000000E+00 -3.37665774812073E-05  0.00000000000000E+00
  0.00000000000000E+00  0.00000000000000E+00 -3.37665774812073E-05
 Total energy (etotal) [Ha]= -8.87065657045922E+00

--- Iteration: ( 2/10) Internal Cycle: (1/1)
--------------------------------------------------------------------------------

---SELF-CONSISTENT-FIELD CONVERGENCE--------------------------------------------

     iter   Etot(hartree)      deltaE(h)  residm     vres2
 ETOT  1  -8.8706784150388    -8.871E+00 8.060E-12 2.471E-02
 ETOT  2  -8.8706794801140    -1.065E-06 1.475E-12 7.915E-04
 ETOT  3  -8.8706795024634    -2.235E-08 3.567E-10 1.200E-05
 ETOT  4  -8.8706795026964    -2.330E-10 3.924E-12 1.383E-08

 At SCF step    4, etot is converged : 
  for the second time, diff in etot=  2.330E-10 < toldfe=  1.000E-06

 Cartesian components of stress tensor (hartree/bohr^3)
  sigma(1 1)= -2.34232634E-05  sigma(3 2)=  0.00000000E+00
  sigma(2 2)= -2.34232634E-05  sigma(3 1)=  0.00000000E+00
  sigma(3 3)= -2.34232634E-05  sigma(2 1)=  0.00000000E+00

 Integrated electronic density in atomic spheres:
 ------------------------------------------------
 Atom  Sphere_radius  Integrated_density
    1        2.00000          1.79473351
    2        2.00000          1.81151592

---OUTPUT-----------------------------------------------------------------------

 Cartesian coordinates (xcart) [bohr]
  0.00000000000000E+00  0.00000000000000E+00  0.00000000000000E+00
  2.54757807819069E+00  2.54757807819069E+00  2.54757807819069E+00
 Reduced coordinates (xred)
  0.00000000000000E+00  0.00000000000000E+00  0.00000000000000E+00
  2.50000000000000E-01  2.50000000000000E-01  2.50000000000000E-01
 Cartesian forces (fcart) [Ha/bohr]; max,rms= 5.16086E-32 5.16086E-32 (free atoms)
  5.16085527122337E-32  5.16085527122337E-32 -5.16085527122337E-32
 -5.16085527122337E-32 -5.16085527122337E-32  5.16085527122337E-32
 Reduced forces (fred)
 -1.05181454029468E-30  0.00000000000000E+00  0.00000000000000E+00
 -1.05181454029468E-30  0.00000000000000E+00  1.05181454029468E-30
 Scale of Primitive Cell (acell) [bohr]
  1.01903123127628E+01  1.01903123127628E+01  1.01903123127628E+01
 Real space primitive translations (rprimd) [bohr]
  0.00000000000000E+00  5.09515615638138E+00  5.09515615638138E+00
  5.09515615638138E+00  0.00000000000000E+00  5.09515615638138E+00
  5.09515615638138E+00  5.09515615638138E+00  0.00000000000000E+00
 Unitary Cell Volume (ucvol) [Bohr^3]=  2.64546787499900E+02
 Angles (23,13,12)= [degrees]
  6.00000000000000E+01  6.00000000000000E+01  6.00000000000000E+01
 Lengths [Bohr]
  7.20563893876332E+00  7.20563893876332E+00  7.20563893876332E+00
 Stress tensor in cartesian coordinates (strten) [Ha/bohr^3]
 -2.34232633936433E-05  0.00000000000000E+00  0.00000000000000E+00
  0.00000000000000E+00 -2.34232633936433E-05  0.00000000000000E+00
  0.00000000000000E+00  0.00000000000000E+00 -2.34232633936433E-05
 Total energy (etotal) [Ha]= -8.87067950269638E+00

 Difference of energy with previous step (new-old):
           Absolute (Ha)=-2.29322E-05
           Relative     =-2.58518E-06

--- Iteration: ( 3/10) Internal Cycle: (1/1)
--------------------------------------------------------------------------------

---SELF-CONSISTENT-FIELD CONVERGENCE--------------------------------------------

     iter   Etot(hartree)      deltaE(h)  residm     vres2
 ETOT  1  -8.8706950260174    -8.871E+00 4.051E-11 1.401E-01
 ETOT  2  -8.8707010789745    -6.053E-06 8.409E-12 4.568E-03
 ETOT  3  -8.8707012085226    -1.295E-07 2.051E-09 6.921E-05
 ETOT  4  -8.8707012098665    -1.344E-09 2.249E-11 7.991E-08

 At SCF step    4, etot is converged : 
  for the second time, diff in etot=  1.344E-09 < toldfe=  1.000E-06

 Cartesian components of stress tensor (hartree/bohr^3)
  sigma(1 1)=  6.01190176E-07  sigma(3 2)=  0.00000000E+00
  sigma(2 2)=  6.01190176E-07  sigma(3 1)=  0.00000000E+00
  sigma(3 3)=  6.01190176E-07  sigma(2 1)=  0.00000000E+00

 Integrated electronic density in atomic spheres:
 ------------------------------------------------
 Atom  Sphere_radius  Integrated_density
    1        2.00000          1.79818516
    2        2.00000          1.80735987

---OUTPUT-----------------------------------------------------------------------

 Cartesian coordinates (xcart) [bohr]
  1.75095971776419E-31  1.75095971776419E-31 -1.75095971776419E-31
  2.55370817929973E+00  2.55370817929973E+00  2.55370817929973E+00
 Reduced coordinates (xred)
 -1.71413450052497E-32 -1.71413450052497E-32  5.14240350157491E-32
  2.50000000000000E-01  2.50000000000000E-01  2.50000000000000E-01
 Cartesian forces (fcart) [Ha/bohr]; max,rms= 0.00000E+00 0.00000E+00 (free atoms)
 -0.00000000000000E+00 -0.00000000000000E+00 -0.00000000000000E+00
 -0.00000000000000E+00 -0.00000000000000E+00 -0.00000000000000E+00
 Reduced forces (fred)
  0.00000000000000E+00  0.00000000000000E+00  0.00000000000000E+00
  0.00000000000000E+00  0.00000000000000E+00  0.00000000000000E+00
 Scale of Primitive Cell (acell) [bohr]
  1.02148327171989E+01  1.02148327171989E+01  1.02148327171989E+01
 Real space primitive translations (rprimd) [bohr]
  0.00000000000000E+00  5.10741635859947E+00  5.10741635859947E+00
  5.10741635859947E+00  0.00000000000000E+00  5.10741635859947E+00
  5.10741635859947E+00  5.10741635859947E+00  0.00000000000000E+00
 Unitary Cell Volume (ucvol) [Bohr^3]=  2.66461080811539E+02
 Angles (23,13,12)= [degrees]
  6.00000000000000E+01  6.00000000000000E+01  6.00000000000000E+01
 Lengths [Bohr]
  7.22297748301757E+00  7.22297748301757E+00  7.22297748301757E+00
 Stress tensor in cartesian coordinates (strten) [Ha/bohr^3]
  6.01190176491881E-07  0.00000000000000E+00  0.00000000000000E+00
  0.00000000000000E+00  6.01190176491827E-07  0.00000000000000E+00
  0.00000000000000E+00  0.00000000000000E+00  6.01190176491881E-07
 Total energy (etotal) [Ha]= -8.87070120986646E+00

 Difference of energy with previous step (new-old):
           Absolute (Ha)=-2.17072E-05
           Relative     =-2.44707E-06

--- Iteration: ( 4/10) Internal Cycle: (1/1)
--------------------------------------------------------------------------------

---SELF-CONSISTENT-FIELD CONVERGENCE--------------------------------------------

     iter   Etot(hartree)      deltaE(h)  residm     vres2
 ETOT  1  -8.8707012202324    -8.871E+00 2.287E-13 9.169E-05
 ETOT  2  -8.8707012241937    -3.961E-09 5.527E-15 2.986E-06
 ETOT  3  -8.8707012242780    -8.433E-11 1.349E-12 4.513E-08

 At SCF step    3, etot is converged : 
  for the second time, diff in etot=  8.433E-11 < toldfe=  1.000E-06

 Cartesian components of stress tensor (hartree/bohr^3)
  sigma(1 1)= -1.02703887E-08  sigma(3 2)=  0.00000000E+00
  sigma(2 2)= -1.02703887E-08  sigma(3 1)=  0.00000000E+00
  sigma(3 3)= -1.02703887E-08  sigma(2 1)=  0.00000000E+00

 Integrated electronic density in atomic spheres:
 ------------------------------------------------
 Atom  Sphere_radius  Integrated_density
    1        2.00000          1.79802770
    2        2.00000          1.80720235

---OUTPUT-----------------------------------------------------------------------

 Cartesian coordinates (xcart) [bohr]
  1.71925019790842E-31  1.71925019790842E-31 -1.71916140845343E-31
  2.55355166247263E+00  2.55355166247263E+00  2.55355166247263E+00
 Reduced coordinates (xred)
 -1.68310811341560E-32 -1.68310811341560E-32  5.04949819507084E-32
  2.50000000000000E-01  2.50000000000000E-01  2.50000000000000E-01
 Cartesian forces (fcart) [Ha/bohr]; max,rms= 3.34671E-31 2.35478E-31 (free atoms)
 -2.31695206175254E-31 -2.57439117972505E-32  3.34670853364256E-31
  2.31695206175254E-31  2.57439117972505E-32 -3.34670853364256E-31
 Reduced forces (fred)
 -1.05181454029468E-30  0.00000000000000E+00  1.05181454029468E-30
  2.10362908058936E-30  1.05181454029468E-30 -1.57772181044202E-30
 Scale of Primitive Cell (acell) [bohr]
  1.02142066498905E+01  1.02142066498905E+01  1.02142066498905E+01
 Real space primitive translations (rprimd) [bohr]
  0.00000000000000E+00  5.10710332494526E+00  5.10710332494526E+00
  5.10710332494526E+00  0.00000000000000E+00  5.10710332494526E+00
  5.10710332494526E+00  5.10710332494526E+00  0.00000000000000E+00
 Unitary Cell Volume (ucvol) [Bohr^3]=  2.66412089598879E+02
 Angles (23,13,12)= [degrees]
  6.00000000000000E+01  6.00000000000000E+01  6.00000000000000E+01
 Lengths [Bohr]
  7.22253478657831E+00  7.22253478657831E+00  7.22253478657831E+00
 Stress tensor in cartesian coordinates (strten) [Ha/bohr^3]
 -1.02703886900569E-08  0.00000000000000E+00  0.00000000000000E+00
  0.00000000000000E+00 -1.02703886899484E-08  0.00000000000000E+00
  0.00000000000000E+00  0.00000000000000E+00 -1.02703886902195E-08
 Total energy (etotal) [Ha]= -8.87070122427798E+00

 Difference of energy with previous step (new-old):
           Absolute (Ha)=-1.44115E-08
           Relative     =-1.62462E-09

 At Broyd/MD step   4, gradients are converged : 
  max grad (force/stress) = 1.0270E-06 < tolmxf= 5.0000E-05 ha/bohr (free atoms)

================================================================================

 ----iterations are completed or convergence reached----

 Mean square residual over all n,k,spin=   5.4785E-13; max=  1.3485E-12
 reduced coordinates (array xred) for    2 atoms
      -0.000000000000     -0.000000000000      0.000000000000
       0.250000000000      0.250000000000      0.250000000000
 rms dE/dt=  1.3060E-30; max dE/dt=  2.1036E-30; dE/dt below (all hartree)
    1      -0.000000000000      0.000000000000      0.000000000000
    2       0.000000000000      0.000000000000     -0.000000000000

 cartesian coordinates (angstrom) at end:
    1      0.00000000000000     0.00000000000000    -0.00000000000000
    2      1.35128134073762     1.35128134073762     1.35128134073762

 cartesian forces (hartree/bohr) at end:
    1     -0.00000000000000    -0.00000000000000     0.00000000000000
    2      0.00000000000000     0.00000000000000    -0.00000000000000
 frms,max,avg= 2.3547824E-31 3.3467085E-31   0.000E+00  0.000E+00  0.000E+00 h/b

 cartesian forces (eV/Angstrom) at end:
    1     -0.00000000000000    -0.00000000000000     0.00000000000000
    2      0.00000000000000     0.00000000000000    -0.00000000000000
 frms,max,avg= 1.2108777E-29 1.7209466E-29   0.000E+00  0.000E+00  0.000E+00 e/A
 length scales= 10.214206649891 10.214206649891 10.214206649891 bohr
              =  5.405125362950  5.405125362950  5.405125362950 angstroms
 prteigrs : about to open file Si_o_DS1_EIG
 Fermi (or HOMO) energy (hartree) =   0.18996   Average Vxc (hartree)=  -0.35410
 Eigenvalues (hartree) for nkpt=   2  k points:
 kpt#   1, nband=  5, wtk=  0.75000, kpt= -0.2500  0.5000  0.0000 (reduced coord)
  -0.12435   -0.01867    0.08524    0.13580    0.26912
 prteigrs : prtvol=0 or 1, do not print more k-points.


--------------------------------------------------------------------------------
 Components of total free energy (in Hartree) :

    Kinetic energy  =  3.04759239046888E+00
    Hartree energy  =  5.48764857968410E-01
    XC energy       = -3.54415604905565E+00
    Ewald energy    = -8.43812658785333E+00
    PspCore energy  =  8.61143996004504E-02
    Loc. psp. energy= -2.44946691782889E+00
    NL   psp  energy=  1.87857668242214E+00
    >>>>>>>>> Etotal= -8.87070122427798E+00

 Other information on the energy :
    Total energy(eV)= -2.41384056121200E+02 ; Band energy (Ha)=   2.4479648581E-01
--------------------------------------------------------------------------------

 Cartesian components of stress tensor (hartree/bohr^3)
  sigma(1 1)= -1.02703887E-08  sigma(3 2)=  0.00000000E+00
  sigma(2 2)= -1.02703887E-08  sigma(3 1)=  0.00000000E+00
  sigma(3 3)= -1.02703887E-08  sigma(2 1)=  0.00000000E+00

-Cartesian components of stress tensor (GPa)         [Pressure=  3.0217E-04 GPa]
- sigma(1 1)= -3.02165217E-04  sigma(3 2)=  0.00000000E+00
- sigma(2 2)= -3.02165217E-04  sigma(3 1)=  0.00000000E+00
- sigma(3 3)= -3.02165217E-04  sigma(2 1)=  0.00000000E+00

================================================================================
== DATASET  2 ==================================================================
-   nproc =    1

 mkfilename : getwfk/=0, take file _WFK from output of DATASET   1.

 Exchange-correlation functional for the present dataset will be:
  LDA: new Teter (4/93) with spin-polarized option - ixc=1
 Citation for XC functional:
  S. Goedecker, M. Teter, J. Huetter, PRB 54, 1703 (1996)

 Real(R)+Recip(G) space primitive vectors, cartesian coordinates (Bohr,Bohr^-1):
 R(1)=  0.0000000  5.0900000  5.0900000  G(1)= -0.0982318  0.0982318  0.0982318
 R(2)=  5.0900000  0.0000000  5.0900000  G(2)=  0.0982318 -0.0982318  0.0982318
 R(3)=  5.0900000  5.0900000  0.0000000  G(3)=  0.0982318  0.0982318 -0.0982318
 Unit cell volume ucvol=  2.6374446E+02 bohr^3
 Angles (23,13,12)=  6.00000000E+01  6.00000000E+01  6.00000000E+01 degrees

 getcut: wavevector=  0.0000  0.0000  0.0000  ngfft=  50  50  50
         ecut(hartree)=     55.125   => boxcut(ratio)=   2.07908
--------------------------------------------------------------------------------

-inwffil : will read wavefunctions from disk file Si_o_DS1_WFK
_setup2: Arith. and geom. avg. npw (full set) are    5157.491    5157.479

================================================================================

=== [ionmov= 3] Broyden-Fletcher-Goldfard-Shanno method (forces,Tot energy) 
================================================================================

--- Iteration: ( 1/10) Internal Cycle: (1/1)
--------------------------------------------------------------------------------

---SELF-CONSISTENT-FIELD CONVERGENCE--------------------------------------------

     iter   Etot(hartree)      deltaE(h)  residm     vres2
 ETOT  1  -8.8770712539690    -8.877E+00 4.643E-04 8.283E-01
 ETOT  2  -8.8771162513698    -4.500E-05 3.508E-04 8.195E-03
 ETOT  3  -8.8771165588898    -3.075E-07 3.557E-05 1.590E-04
 ETOT  4  -8.8771165628970    -4.007E-09 6.417E-06 5.173E-07

 At SCF step    4, etot is converged : 
  for the second time, diff in etot=  4.007E-09 < toldfe=  1.000E-06

 Cartesian components of stress tensor (hartree/bohr^3)
  sigma(1 1)= -2.00855747E-05  sigma(3 2)=  0.00000000E+00
  sigma(2 2)= -2.00855747E-05  sigma(3 1)=  0.00000000E+00
  sigma(3 3)= -2.00855747E-05  sigma(2 1)=  0.00000000E+00

 Integrated electronic density in atomic spheres:
 ------------------------------------------------
 Atom  Sphere_radius  Integrated_density
    1        2.00000          1.78891283
    2        2.00000          1.80560626

---OUTPUT-----------------------------------------------------------------------

 Cartesian coordinates (xcart) [bohr]
  0.00000000000000E+00  0.00000000000000E+00  0.00000000000000E+00
  2.54500000000000E+00  2.54500000000000E+00  2.54500000000000E+00
 Reduced coordinates (xred)
  0.00000000000000E+00  0.00000000000000E+00  0.00000000000000E+00
  2.50000000000000E-01  2.50000000000000E-01  2.50000000000000E-01
 Cartesian forces (fcart) [Ha/bohr]; max,rms= 0.00000E+00 0.00000E+00 (free atoms)
 -0.00000000000000E+00 -0.00000000000000E+00 -0.00000000000000E+00
 -0.00000000000000E+00 -0.00000000000000E+00 -0.00000000000000E+00
 Reduced forces (fred)
  0.00000000000000E+00  0.00000000000000E+00  0.00000000000000E+00
  0.00000000000000E+00  0.00000000000000E+00  0.00000000000000E+00
 Scale of Primitive Cell (acell) [bohr]
  1.01800000000000E+01  1.01800000000000E+01  1.01800000000000E+01
 Real space primitive translations (rprimd) [bohr]
  0.00000000000000E+00  5.09000000000000E+00  5.09000000000000E+00
  5.09000000000000E+00  0.00000000000000E+00  5.09000000000000E+00
  5.09000000000000E+00  5.09000000000000E+00  0.00000000000000E+00
 Unitary Cell Volume (ucvol) [Bohr^3]=  2.63744458000000E+02
 Angles (23,13,12)= [degrees]
  6.00000000000000E+01  6.00000000000000E+01  6.00000000000000E+01
 Lengths [Bohr]
  7.19834703247905E+00  7.19834703247905E+00  7.19834703247905E+00
 Stress tensor in cartesian coordinates (strten) [Ha/bohr^3]
 -2.00855747199904E-05  0.00000000000000E+00  0.00000000000000E+00
  0.00000000000000E+00 -2.00855747199903E-05  0.00000000000000E+00
  0.00000000000000E+00  0.00000000000000E+00 -2.00855747199903E-05
 Total energy (etotal) [Ha]= -8.87711656289701E+00

--- Iteration: ( 2/10) Internal Cycle: (1/1)
--------------------------------------------------------------------------------

---SELF-CONSISTENT-FIELD CONVERGENCE--------------------------------------------

     iter   Etot(hartree)      deltaE(h)  residm     vres2
 ETOT  1  -8.8771243128279    -8.877E+00 1.020E-07 8.575E-03
 ETOT  2  -8.8771246954188    -3.826E-07 2.973E-09 2.526E-04
 ETOT  3  -8.8771247027149    -7.296E-09 6.504E-10 4.254E-06

 At SCF step    3, etot is converged : 
  for the second time, diff in etot=  7.296E-09 < toldfe=  1.000E-06

 Cartesian components of stress tensor (hartree/bohr^3)
  sigma(1 1)= -1.40221428E-05  sigma(3 2)=  0.00000000E+00
  sigma(2 2)= -1.40221428E-05  sigma(3 1)=  0.00000000E+00
  sigma(3 3)= -1.40221428E-05  sigma(2 1)=  0.00000000E+00

 Integrated electronic density in atomic spheres:
 ------------------------------------------------
 Atom  Sphere_radius  Integrated_density
    1        2.00000          1.79046423
    2        2.00000          1.80715773

---OUTPUT-----------------------------------------------------------------------

 Cartesian coordinates (xcart) [bohr]
  0.00000000000000E+00  0.00000000000000E+00  0.00000000000000E+00
  2.54653353362987E+00  2.54653353362987E+00  2.54653353362987E+00
 Reduced coordinates (xred)
  0.00000000000000E+00  0.00000000000000E+00  0.00000000000000E+00
  2.50000000000000E-01  2.50000000000000E-01  2.50000000000000E-01
 Cartesian forces (fcart) [Ha/bohr]; max,rms= 0.00000E+00 0.00000E+00 (free atoms)
 -0.00000000000000E+00 -0.00000000000000E+00 -0.00000000000000E+00
 -0.00000000000000E+00 -0.00000000000000E+00 -0.00000000000000E+00
 Reduced forces (fred)
  0.00000000000000E+00  0.00000000000000E+00  0.00000000000000E+00
  0.00000000000000E+00  0.00000000000000E+00  0.00000000000000E+00
 Scale of Primitive Cell (acell) [bohr]
  1.01861341345195E+01  1.01861341345195E+01  1.01861341345195E+01
 Real space primitive translations (rprimd) [bohr]
  0.00000000000000E+00  5.09306706725974E+00  5.09306706725974E+00
  5.09306706725974E+00  0.00000000000000E+00  5.09306706725974E+00
  5.09306706725974E+00  5.09306706725974E+00  0.00000000000000E+00
 Unitary Cell Volume (ucvol) [Bohr^3]=  2.64221516656110E+02
 Angles (23,13,12)= [degrees]
  6.00000000000000E+01  6.00000000000000E+01  6.00000000000000E+01
 Lengths [Bohr]
  7.20268452059449E+00  7.20268452059449E+00  7.20268452059449E+00
 Stress tensor in cartesian coordinates (strten) [Ha/bohr^3]
 -1.40221427778017E-05  0.00000000000000E+00  0.00000000000000E+00
  0.00000000000000E+00 -1.40221427778015E-05  0.00000000000000E+00
  0.00000000000000E+00  0.00000000000000E+00 -1.40221427778016E-05
 Total energy (etotal) [Ha]= -8.87712470271490E+00

 Difference of energy with previous step (new-old):
           Absolute (Ha)=-8.13982E-06
           Relative     =-9.16943E-07

--- Iteration: ( 3/10) Internal Cycle: (1/1)
--------------------------------------------------------------------------------

---SELF-CONSISTENT-FIELD CONVERGENCE--------------------------------------------

     iter   Etot(hartree)      deltaE(h)  residm     vres2
 ETOT  1  -8.8771305500873    -8.877E+00 5.107E-08 4.457E-02
 ETOT  2  -8.8771325411285    -1.991E-06 3.513E-09 1.327E-03
 ETOT  3  -8.8771325795667    -3.844E-08 2.411E-09 2.233E-05
 ETOT  4  -8.8771325800235    -4.569E-10 2.301E-10 2.532E-08

 At SCF step    4, etot is converged : 
  for the second time, diff in etot=  4.569E-10 < toldfe=  1.000E-06

 Cartesian components of stress tensor (hartree/bohr^3)
  sigma(1 1)= -4.56175499E-07  sigma(3 2)=  0.00000000E+00
  sigma(2 2)= -4.56175499E-07  sigma(3 1)=  0.00000000E+00
  sigma(3 3)= -4.56175499E-07  sigma(2 1)=  0.00000000E+00

 Integrated electronic density in atomic spheres:
 ------------------------------------------------
 Atom  Sphere_radius  Integrated_density
    1        2.00000          1.79401532
    2        2.00000          1.80039138

---OUTPUT-----------------------------------------------------------------------

 Cartesian coordinates (xcart) [bohr]
  0.00000000000000E+00  0.00000000000000E+00  0.00000000000000E+00
  2.55002963075566E+00  2.55002963075566E+00  2.55002963075566E+00
 Reduced coordinates (xred)
  0.00000000000000E+00  0.00000000000000E+00  0.00000000000000E+00
  2.50000000000000E-01  2.50000000000000E-01  2.50000000000000E-01
 Cartesian forces (fcart) [Ha/bohr]; max,rms= 0.00000E+00 0.00000E+00 (free atoms)
 -0.00000000000000E+00 -0.00000000000000E+00 -0.00000000000000E+00
 -0.00000000000000E+00 -0.00000000000000E+00 -0.00000000000000E+00
 Reduced forces (fred)
  0.00000000000000E+00  0.00000000000000E+00  0.00000000000000E+00
  0.00000000000000E+00  0.00000000000000E+00  0.00000000000000E+00
 Scale of Primitive Cell (acell) [bohr]
  1.02001185230226E+01  1.02001185230226E+01  1.02001185230226E+01
 Real space primitive translations (rprimd) [bohr]
  0.00000000000000E+00  5.10005926151132E+00  5.10005926151132E+00
  5.10005926151132E+00  0.00000000000000E+00  5.10005926151132E+00
  5.10005926151132E+00  5.10005926151132E+00  0.00000000000000E+00
 Unitary Cell Volume (ucvol) [Bohr^3]=  2.65311248458922E+02
 Angles (23,13,12)= [degrees]
  6.00000000000000E+01  6.00000000000000E+01  6.00000000000000E+01
 Lengths [Bohr]
  7.21257297653582E+00  7.21257297653582E+00  7.21257297653582E+00
 Stress tensor in cartesian coordinates (strten) [Ha/bohr^3]
 -4.56175499024517E-07  0.00000000000000E+00  0.00000000000000E+00
  0.00000000000000E+00 -4.56175499024517E-07  0.00000000000000E+00
  0.00000000000000E+00  0.00000000000000E+00 -4.56175499024462E-07
 Total energy (etotal) [Ha]= -8.87713258002355E+00

 Difference of energy with previous step (new-old):
           Absolute (Ha)=-7.87731E-06
           Relative     =-8.87371E-07

 At Broyd/MD step   3, gradients are converged : 
  max grad (force/stress) = 4.5618E-05 < tolmxf= 5.0000E-05 ha/bohr (free atoms)

================================================================================

 ----iterations are completed or convergence reached----

 Mean square residual over all n,k,spin=   9.2465E-12; max=  2.3011E-10
 reduced coordinates (array xred) for    2 atoms
       0.000000000000      0.000000000000      0.000000000000
       0.250000000000      0.250000000000      0.250000000000
 rms dE/dt=  0.0000E+00; max dE/dt=  0.0000E+00; dE/dt below (all hartree)
    1       0.000000000000      0.000000000000      0.000000000000
    2       0.000000000000      0.000000000000      0.000000000000

 cartesian coordinates (angstrom) at end:
    1      0.00000000000000     0.00000000000000     0.00000000000000
    2      1.34941756182507     1.34941756182507     1.34941756182507

 cartesian forces (hartree/bohr) at end:
    1     -0.00000000000000    -0.00000000000000    -0.00000000000000
    2     -0.00000000000000    -0.00000000000000    -0.00000000000000
 frms,max,avg= 0.0000000E+00 0.0000000E+00   0.000E+00  0.000E+00  0.000E+00 h/b

 cartesian forces (eV/Angstrom) at end:
    1     -0.00000000000000    -0.00000000000000    -0.00000000000000
    2     -0.00000000000000    -0.00000000000000    -0.00000000000000
 frms,max,avg= 0.0000000E+00 0.0000000E+00   0.000E+00  0.000E+00  0.000E+00 e/A
 length scales= 10.200118523023 10.200118523023 10.200118523023 bohr
              =  5.397670247300  5.397670247300  5.397670247300 angstroms
 prteigrs : about to open file Si_o_DS2_EIG
 Fermi (or HOMO) energy (hartree) =   0.21319   Average Vxc (hartree)=  -0.35516
 Eigenvalues (hartree) for nkpt=  28  k points:
 kpt#   1, nband=  5, wtk=  0.02778, kpt= -0.0833 -0.1667  0.0000 (reduced coord)
  -0.21408    0.14666    0.18867    0.19587    0.30117
 prteigrs : prtvol=0 or 1, do not print more k-points.


--------------------------------------------------------------------------------
 Components of total free energy (in Hartree) :

    Kinetic energy  =  3.03098399014012E+00
    Hartree energy  =  5.37068321414890E-01
    XC energy       = -3.54271798864469E+00
    Ewald energy    = -8.44978109928166E+00
    PspCore energy  =  8.64717092673925E-02
    Loc. psp. energy= -2.42935712395004E+00
    NL   psp  energy=  1.89019961103045E+00
    >>>>>>>>> Etotal= -8.87713258002355E+00

 Other information on the energy :
    Total energy(eV)= -2.41559062211133E+02 ; Band energy (Ha)=   2.3874638248E-01
--------------------------------------------------------------------------------

 Cartesian components of stress tensor (hartree/bohr^3)
  sigma(1 1)= -4.56175499E-07  sigma(3 2)=  0.00000000E+00
  sigma(2 2)= -4.56175499E-07  sigma(3 1)=  0.00000000E+00
  sigma(3 3)= -4.56175499E-07  sigma(2 1)=  0.00000000E+00

-Cartesian components of stress tensor (GPa)         [Pressure=  1.3421E-02 GPa]
- sigma(1 1)= -1.34211443E-02  sigma(3 2)=  0.00000000E+00
- sigma(2 2)= -1.34211443E-02  sigma(3 1)=  0.00000000E+00
- sigma(3 3)= -1.34211443E-02  sigma(2 1)=  0.00000000E+00

================================================================================
== DATASET  3 ==================================================================
-   nproc =    1

 mkfilename : getwfk/=0, take file _WFK from output of DATASET   2.

 Exchange-correlation functional for the present dataset will be:
  LDA: new Teter (4/93) with spin-polarized option - ixc=1
 Citation for XC functional:
  S. Goedecker, M. Teter, J. Huetter, PRB 54, 1703 (1996)

 Real(R)+Recip(G) space primitive vectors, cartesian coordinates (Bohr,Bohr^-1):
 R(1)=  0.0000000  5.0900000  5.0900000  G(1)= -0.0982318  0.0982318  0.0982318
 R(2)=  5.0900000  0.0000000  5.0900000  G(2)=  0.0982318 -0.0982318  0.0982318
 R(3)=  5.0900000  5.0900000  0.0000000  G(3)=  0.0982318  0.0982318 -0.0982318
 Unit cell volume ucvol=  2.6374446E+02 bohr^3
 Angles (23,13,12)=  6.00000000E+01  6.00000000E+01  6.00000000E+01 degrees

 getcut: wavevector=  0.0000  0.0000  0.0000  ngfft=  50  50  50
         ecut(hartree)=     55.125   => boxcut(ratio)=   2.07908
--------------------------------------------------------------------------------

-inwffil : will read wavefunctions from disk file Si_o_DS2_WFK
_setup2: Arith. and geom. avg. npw (full set) are    5155.574    5155.562

================================================================================

=== [ionmov= 3] Broyden-Fletcher-Goldfard-Shanno method (forces,Tot energy) 
================================================================================

--- Iteration: ( 1/10) Internal Cycle: (1/1)
--------------------------------------------------------------------------------

---SELF-CONSISTENT-FIELD CONVERGENCE--------------------------------------------

     iter   Etot(hartree)      deltaE(h)  residm     vres2
 ETOT  1  -8.8771163449023    -8.877E+00 3.450E-03 8.341E-02
 ETOT  2  -8.8771202436793    -3.899E-06 9.211E-05 1.257E-03
 ETOT  3  -8.8771202875859    -4.391E-08 1.210E-05 2.383E-05
 ETOT  4  -8.8771202881489    -5.630E-10 1.177E-06 2.876E-08

 At SCF step    4, etot is converged : 
  for the second time, diff in etot=  5.630E-10 < toldfe=  1.000E-06

 Cartesian components of stress tensor (hartree/bohr^3)
  sigma(1 1)= -2.01338379E-05  sigma(3 2)=  0.00000000E+00
  sigma(2 2)= -2.01338379E-05  sigma(3 1)=  0.00000000E+00
  sigma(3 3)= -2.01338379E-05  sigma(2 1)=  0.00000000E+00

 Integrated electronic density in atomic spheres:
 ------------------------------------------------
 Atom  Sphere_radius  Integrated_density
    1        2.00000          1.78891299
    2        2.00000          1.80560626

---OUTPUT-----------------------------------------------------------------------

 Cartesian coordinates (xcart) [bohr]
  0.00000000000000E+00  0.00000000000000E+00  0.00000000000000E+00
  2.54500000000000E+00  2.54500000000000E+00  2.54500000000000E+00
 Reduced coordinates (xred)
  0.00000000000000E+00  0.00000000000000E+00  0.00000000000000E+00
  2.50000000000000E-01  2.50000000000000E-01  2.50000000000000E-01
 Cartesian forces (fcart) [Ha/bohr]; max,rms= 3.74541E-31 2.53415E-31 (free atoms)
  6.45760400475615E-32 -2.19558536161709E-31  3.74541032275857E-31
 -6.45760400475615E-32  2.19558536161709E-31 -3.74541032275857E-31
 Reduced forces (fred)
  0.00000000000000E+00 -2.89248998581038E-30  0.00000000000000E+00
  1.57772181044202E-30  1.57772181044202E-30 -1.57772181044202E-30
 Scale of Primitive Cell (acell) [bohr]
  1.01800000000000E+01  1.01800000000000E+01  1.01800000000000E+01
 Real space primitive translations (rprimd) [bohr]
  0.00000000000000E+00  5.09000000000000E+00  5.09000000000000E+00
  5.09000000000000E+00  0.00000000000000E+00  5.09000000000000E+00
  5.09000000000000E+00  5.09000000000000E+00  0.00000000000000E+00
 Unitary Cell Volume (ucvol) [Bohr^3]=  2.63744458000000E+02
 Angles (23,13,12)= [degrees]
  6.00000000000000E+01  6.00000000000000E+01  6.00000000000000E+01
 Lengths [Bohr]
  7.19834703247905E+00  7.19834703247905E+00  7.19834703247905E+00
 Stress tensor in cartesian coordinates (strten) [Ha/bohr^3]
 -2.01338379191931E-05  0.00000000000000E+00  0.00000000000000E+00
  0.00000000000000E+00 -2.01338379191932E-05  0.00000000000000E+00
  0.00000000000000E+00  0.00000000000000E+00 -2.01338379191932E-05
 Total energy (etotal) [Ha]= -8.87712028814889E+00

--- Iteration: ( 2/10) Internal Cycle: (1/1)
--------------------------------------------------------------------------------

---SELF-CONSISTENT-FIELD CONVERGENCE--------------------------------------------

     iter   Etot(hartree)      deltaE(h)  residm     vres2
 ETOT  1  -8.8771280729559    -8.877E+00 2.919E-08 8.627E-03
 ETOT  2  -8.8771284580400    -3.851E-07 2.223E-09 2.539E-04
 ETOT  3  -8.8771284653745    -7.334E-09 3.622E-09 4.282E-06

 At SCF step    3, etot is converged : 
  for the second time, diff in etot=  7.334E-09 < toldfe=  1.000E-06

 Cartesian components of stress tensor (hartree/bohr^3)
  sigma(1 1)= -1.40524394E-05  sigma(3 2)=  0.00000000E+00
  sigma(2 2)= -1.40524394E-05  sigma(3 1)=  0.00000000E+00
  sigma(3 3)= -1.40524394E-05  sigma(2 1)=  0.00000000E+00

 Integrated electronic density in atomic spheres:
 ------------------------------------------------
 Atom  Sphere_radius  Integrated_density
    1        2.00000          1.79046753
    2        2.00000          1.80716086

---OUTPUT-----------------------------------------------------------------------

 Cartesian coordinates (xcart) [bohr]
  6.46150449532750E-32 -2.19691152841135E-31  3.74767260728995E-31
  2.54653721852513E+00  2.54653721852513E+00  2.54653721852513E+00
 Reduced coordinates (xred)
  8.88079136214010E-33  6.47029084955921E-32 -5.20160636925348E-32
  2.50000000000000E-01  2.50000000000000E-01  2.50000000000000E-01
 Cartesian forces (fcart) [Ha/bohr]; max,rms= 0.00000E+00 0.00000E+00 (free atoms)
 -0.00000000000000E+00 -0.00000000000000E+00 -0.00000000000000E+00
 -0.00000000000000E+00 -0.00000000000000E+00 -0.00000000000000E+00
 Reduced forces (fred)
  0.00000000000000E+00  0.00000000000000E+00  0.00000000000000E+00
  0.00000000000000E+00  0.00000000000000E+00  0.00000000000000E+00
 Scale of Primitive Cell (acell) [bohr]
  1.01861488741005E+01  1.01861488741005E+01  1.01861488741005E+01
 Real space primitive translations (rprimd) [bohr]
  0.00000000000000E+00  5.09307443705026E+00  5.09307443705026E+00
  5.09307443705026E+00  0.00000000000000E+00  5.09307443705026E+00
  5.09307443705026E+00  5.09307443705026E+00  0.00000000000000E+00
 Unitary Cell Volume (ucvol) [Bohr^3]=  2.64222663662435E+02
 Angles (23,13,12)= [degrees]
  6.00000000000000E+01  6.00000000000000E+01  6.00000000000000E+01
 Lengths [Bohr]
  7.20269494305219E+00  7.20269494305219E+00  7.20269494305219E+00
 Stress tensor in cartesian coordinates (strten) [Ha/bohr^3]
 -1.40524394343137E-05  0.00000000000000E+00  0.00000000000000E+00
  0.00000000000000E+00 -1.40524394343137E-05  0.00000000000000E+00
  0.00000000000000E+00  0.00000000000000E+00 -1.40524394343138E-05
 Total energy (etotal) [Ha]= -8.87712846537451E+00

 Difference of energy with previous step (new-old):
           Absolute (Ha)=-8.17723E-06
           Relative     =-9.21157E-07

--- Iteration: ( 3/10) Internal Cycle: (1/1)
--------------------------------------------------------------------------------

---SELF-CONSISTENT-FIELD CONVERGENCE--------------------------------------------

     iter   Etot(hartree)      deltaE(h)  residm     vres2
 ETOT  1  -8.8771343170115    -8.877E+00 1.267E-07 4.530E-02
 ETOT  2  -8.8771363409587    -2.024E-06 1.902E-08 1.349E-03
 ETOT  3  -8.8771363800186    -3.906E-08 1.835E-08 2.271E-05
 ETOT  4  -8.8771363804832    -4.645E-10 2.529E-09 2.565E-08

 At SCF step    4, etot is converged : 
  for the second time, diff in etot=  4.645E-10 < toldfe=  1.000E-06

 Cartesian components of stress tensor (hartree/bohr^3)
  sigma(1 1)= -3.79430945E-07  sigma(3 2)=  0.00000000E+00
  sigma(2 2)= -3.79430945E-07  sigma(3 1)=  0.00000000E+00
  sigma(3 3)= -3.79430945E-07  sigma(2 1)=  0.00000000E+00

 Integrated electronic density in atomic spheres:
 ------------------------------------------------
 Atom  Sphere_radius  Integrated_density
    1        2.00000          1.79404732
    2        2.00000          1.80042330

---OUTPUT-----------------------------------------------------------------------

 Cartesian coordinates (xcart) [bohr]
  6.46093719103960E-32 -2.17300758821026E-31  3.72147696344675E-31
  2.55006152971802E+00  2.55006152971802E+00  2.55006152971802E+00
 Reduced coordinates (xred)
  8.84660669572462E-33  6.41217691665290E-32 -5.14535705451529E-32
  2.50000000000000E-01  2.50000000000000E-01  2.50000000000000E-01
 Cartesian forces (fcart) [Ha/bohr]; max,rms= 0.00000E+00 0.00000E+00 (free atoms)
 -0.00000000000000E+00 -0.00000000000000E+00 -0.00000000000000E+00
 -0.00000000000000E+00 -0.00000000000000E+00 -0.00000000000000E+00
 Reduced forces (fred)
  0.00000000000000E+00  0.00000000000000E+00  0.00000000000000E+00
  0.00000000000000E+00  0.00000000000000E+00  0.00000000000000E+00
 Scale of Primitive Cell (acell) [bohr]
  1.02002461188721E+01  1.02002461188721E+01  1.02002461188721E+01
 Real space primitive translations (rprimd) [bohr]
  0.00000000000000E+00  5.10012305943603E+00  5.10012305943603E+00
  5.10012305943603E+00  0.00000000000000E+00  5.10012305943603E+00
  5.10012305943603E+00  5.10012305943603E+00  0.00000000000000E+00
 Unitary Cell Volume (ucvol) [Bohr^3]=  2.65321205118986E+02
 Angles (23,13,12)= [degrees]
  6.00000000000000E+01  6.00000000000000E+01  6.00000000000000E+01
 Lengths [Bohr]
  7.21266320042620E+00  7.21266320042620E+00  7.21266320042620E+00
 Stress tensor in cartesian coordinates (strten) [Ha/bohr^3]
 -3.79430944737419E-07  0.00000000000000E+00  0.00000000000000E+00
  0.00000000000000E+00 -3.79430944737311E-07  0.00000000000000E+00
  0.00000000000000E+00  0.00000000000000E+00 -3.79430944737256E-07
 Total energy (etotal) [Ha]= -8.87713638048315E+00

 Difference of energy with previous step (new-old):
           Absolute (Ha)=-7.91511E-06
           Relative     =-8.91629E-07

 At Broyd/MD step   3, gradients are converged : 
  max grad (force/stress) = 3.7943E-05 < tolmxf= 5.0000E-05 ha/bohr (free atoms)

================================================================================

 ----iterations are completed or convergence reached----

 Mean square residual over all n,k,spin=   2.1488E-11; max=  2.5289E-09
 reduced coordinates (array xred) for    2 atoms
       0.000000000000      0.000000000000     -0.000000000000
       0.250000000000      0.250000000000      0.250000000000
 rms dE/dt=  0.0000E+00; max dE/dt=  0.0000E+00; dE/dt below (all hartree)
    1       0.000000000000      0.000000000000      0.000000000000
    2       0.000000000000      0.000000000000      0.000000000000

 cartesian coordinates (angstrom) at end:
    1      0.00000000000000    -0.00000000000000     0.00000000000000
    2      1.34943444202892     1.34943444202892     1.34943444202892

 cartesian forces (hartree/bohr) at end:
    1     -0.00000000000000    -0.00000000000000    -0.00000000000000
    2     -0.00000000000000    -0.00000000000000    -0.00000000000000
 frms,max,avg= 0.0000000E+00 0.0000000E+00   0.000E+00  0.000E+00  0.000E+00 h/b

 cartesian forces (eV/Angstrom) at end:
    1     -0.00000000000000    -0.00000000000000    -0.00000000000000
    2     -0.00000000000000    -0.00000000000000    -0.00000000000000
 frms,max,avg= 0.0000000E+00 0.0000000E+00   0.000E+00  0.000E+00  0.000E+00 e/A
 length scales= 10.200246118872 10.200246118872 10.200246118872 bohr
              =  5.397737768116  5.397737768116  5.397737768116 angstroms
 prteigrs : about to open file Si_o_DS3_EIG
 Fermi (or HOMO) energy (hartree) =   0.21540   Average Vxc (hartree)=  -0.35516
 Eigenvalues (hartree) for nkpt=  60  k points:
 kpt#   1, nband=  5, wtk=  0.01172, kpt= -0.0625 -0.1250  0.0000 (reduced coord)
  -0.21951    0.17070    0.19897    0.20534    0.30466
 prteigrs : prtvol=0 or 1, do not print more k-points.


--------------------------------------------------------------------------------
 Components of total free energy (in Hartree) :

    Kinetic energy  =  3.03090301698998E+00
    Hartree energy  =  5.37069548309857E-01
    XC energy       = -3.54269004846461E+00
    Ewald energy    = -8.44967540016573E+00
    PspCore energy  =  8.64684642594636E-02
    Loc. psp. energy= -2.42943533266152E+00
    NL   psp  energy=  1.89022337124940E+00
    >>>>>>>>> Etotal= -8.87713638048315E+00

 Other information on the energy :
    Total energy(eV)= -2.41559165626898E+02 ; Band energy (Ha)=   2.3864887260E-01
--------------------------------------------------------------------------------

 Cartesian components of stress tensor (hartree/bohr^3)
  sigma(1 1)= -3.79430945E-07  sigma(3 2)=  0.00000000E+00
  sigma(2 2)= -3.79430945E-07  sigma(3 1)=  0.00000000E+00
  sigma(3 3)= -3.79430945E-07  sigma(2 1)=  0.00000000E+00

-Cartesian components of stress tensor (GPa)         [Pressure=  1.1163E-02 GPa]
- sigma(1 1)= -1.11632419E-02  sigma(3 2)=  0.00000000E+00
- sigma(2 2)= -1.11632419E-02  sigma(3 1)=  0.00000000E+00
- sigma(3 3)= -1.11632419E-02  sigma(2 1)=  0.00000000E+00

================================================================================
== DATASET  4 ==================================================================
-   nproc =    1

 mkfilename : getwfk/=0, take file _WFK from output of DATASET   3.

 Exchange-correlation functional for the present dataset will be:
  LDA: new Teter (4/93) with spin-polarized option - ixc=1
 Citation for XC functional:
  S. Goedecker, M. Teter, J. Huetter, PRB 54, 1703 (1996)

 Real(R)+Recip(G) space primitive vectors, cartesian coordinates (Bohr,Bohr^-1):
 R(1)=  0.0000000  5.0900000  5.0900000  G(1)= -0.0982318  0.0982318  0.0982318
 R(2)=  5.0900000  0.0000000  5.0900000  G(2)=  0.0982318 -0.0982318  0.0982318
 R(3)=  5.0900000  5.0900000  0.0000000  G(3)=  0.0982318  0.0982318 -0.0982318
 Unit cell volume ucvol=  2.6374446E+02 bohr^3
 Angles (23,13,12)=  6.00000000E+01  6.00000000E+01  6.00000000E+01 degrees

 getcut: wavevector=  0.0000  0.0000  0.0000  ngfft=  50  50  50
         ecut(hartree)=     55.125   => boxcut(ratio)=   2.07908
--------------------------------------------------------------------------------

-inwffil : will read wavefunctions from disk file Si_o_DS3_WFK
_setup2: Arith. and geom. avg. npw (full set) are    5156.050    5156.036

================================================================================

=== [ionmov= 3] Broyden-Fletcher-Goldfard-Shanno method (forces,Tot energy) 
================================================================================

--- Iteration: ( 1/10) Internal Cycle: (1/1)
--------------------------------------------------------------------------------

---SELF-CONSISTENT-FIELD CONVERGENCE--------------------------------------------

     iter   Etot(hartree)      deltaE(h)  residm     vres2
 ETOT  1  -8.8771032142629    -8.877E+00 9.435E-03 3.495E-01
 ETOT  2  -8.8771202867430    -1.707E-05 5.259E-04 4.631E-03
 ETOT  3  -8.8771204504885    -1.637E-07 9.779E-05 9.578E-05
 ETOT  4  -8.8771204527479    -2.259E-09 1.458E-05 1.262E-07

 At SCF step    4, etot is converged : 
  for the second time, diff in etot=  2.259E-09 < toldfe=  1.000E-06

 Cartesian components of stress tensor (hartree/bohr^3)
  sigma(1 1)= -2.01389360E-05  sigma(3 2)=  0.00000000E+00
  sigma(2 2)= -2.01389360E-05  sigma(3 1)=  0.00000000E+00
  sigma(3 3)= -2.01389360E-05  sigma(2 1)=  0.00000000E+00

 Integrated electronic density in atomic spheres:
 ------------------------------------------------
 Atom  Sphere_radius  Integrated_density
    1        2.00000          1.78891320
    2        2.00000          1.80560647

---OUTPUT-----------------------------------------------------------------------

 Cartesian coordinates (xcart) [bohr]
  0.00000000000000E+00  0.00000000000000E+00  0.00000000000000E+00
  2.54500000000000E+00  2.54500000000000E+00  2.54500000000000E+00
 Reduced coordinates (xred)
  0.00000000000000E+00  0.00000000000000E+00  0.00000000000000E+00
  2.50000000000000E-01  2.50000000000000E-01  2.50000000000000E-01
 Cartesian forces (fcart) [Ha/bohr]; max,rms= 0.00000E+00 0.00000E+00 (free atoms)
 -0.00000000000000E+00 -0.00000000000000E+00 -0.00000000000000E+00
 -0.00000000000000E+00 -0.00000000000000E+00 -0.00000000000000E+00
 Reduced forces (fred)
  0.00000000000000E+00  0.00000000000000E+00  0.00000000000000E+00
  0.00000000000000E+00  0.00000000000000E+00  0.00000000000000E+00
 Scale of Primitive Cell (acell) [bohr]
  1.01800000000000E+01  1.01800000000000E+01  1.01800000000000E+01
 Real space primitive translations (rprimd) [bohr]
  0.00000000000000E+00  5.09000000000000E+00  5.09000000000000E+00
  5.09000000000000E+00  0.00000000000000E+00  5.09000000000000E+00
  5.09000000000000E+00  5.09000000000000E+00  0.00000000000000E+00
 Unitary Cell Volume (ucvol) [Bohr^3]=  2.63744458000000E+02
 Angles (23,13,12)= [degrees]
  6.00000000000000E+01  6.00000000000000E+01  6.00000000000000E+01
 Lengths [Bohr]
  7.19834703247905E+00  7.19834703247905E+00  7.19834703247905E+00
 Stress tensor in cartesian coordinates (strten) [Ha/bohr^3]
 -2.01389359774567E-05  0.00000000000000E+00  0.00000000000000E+00
  0.00000000000000E+00 -2.01389359774566E-05  0.00000000000000E+00
  0.00000000000000E+00  0.00000000000000E+00 -2.01389359774566E-05
 Total energy (etotal) [Ha]= -8.87712045274793E+00

--- Iteration: ( 2/10) Internal Cycle: (1/1)
--------------------------------------------------------------------------------

---SELF-CONSISTENT-FIELD CONVERGENCE--------------------------------------------

     iter   Etot(hartree)      deltaE(h)  residm     vres2
 ETOT  1  -8.8771282417798    -8.877E+00 5.568E-07 8.630E-03
 ETOT  2  -8.8771286269512    -3.852E-07 2.456E-08 2.540E-04
 ETOT  3  -8.8771286342893    -7.338E-09 3.172E-09 4.283E-06

 At SCF step    3, etot is converged : 
  for the second time, diff in etot=  7.338E-09 < toldfe=  1.000E-06

 Cartesian components of stress tensor (hartree/bohr^3)
  sigma(1 1)= -1.40563906E-05  sigma(3 2)=  0.00000000E+00
  sigma(2 2)= -1.40563906E-05  sigma(3 1)=  0.00000000E+00
  sigma(3 3)= -1.40563906E-05  sigma(2 1)=  0.00000000E+00

 Integrated electronic density in atomic spheres:
 ------------------------------------------------
 Atom  Sphere_radius  Integrated_density
    1        2.00000          1.79046816
    2        2.00000          1.80716149

---OUTPUT-----------------------------------------------------------------------

 Cartesian coordinates (xcart) [bohr]
  0.00000000000000E+00  0.00000000000000E+00  0.00000000000000E+00
  2.54653760776188E+00  2.54653760776188E+00  2.54653760776188E+00
 Reduced coordinates (xred)
  0.00000000000000E+00  0.00000000000000E+00  0.00000000000000E+00
  2.50000000000000E-01  2.50000000000000E-01  2.50000000000000E-01
 Cartesian forces (fcart) [Ha/bohr]; max,rms= 0.00000E+00 0.00000E+00 (free atoms)
 -0.00000000000000E+00 -0.00000000000000E+00 -0.00000000000000E+00
 -0.00000000000000E+00 -0.00000000000000E+00 -0.00000000000000E+00
 Reduced forces (fred)
  0.00000000000000E+00  0.00000000000000E+00  0.00000000000000E+00
  0.00000000000000E+00  0.00000000000000E+00  0.00000000000000E+00
 Scale of Primitive Cell (acell) [bohr]
  1.01861504310475E+01  1.01861504310475E+01  1.01861504310475E+01
 Real space primitive translations (rprimd) [bohr]
  0.00000000000000E+00  5.09307521552376E+00  5.09307521552376E+00
[...]
                      -2.50000000E-01 -4.00000000E-01  0.00000000E+00
                      -2.00000000E-01 -4.00000000E-01  5.00000000E-02
                      -1.50000000E-01 -4.00000000E-01  1.00000000E-01
                      -1.00000000E-01 -4.00000000E-01  1.50000000E-01
                      -5.00000000E-02 -4.00000000E-01  2.00000000E-01
                      -3.00000000E-01 -3.50000000E-01  0.00000000E+00
                      -2.50000000E-01 -3.50000000E-01  5.00000000E-02
              kpt5    -4.16666667E-02 -8.33333333E-02  0.00000000E+00
                      -4.16666667E-02 -1.66666667E-01  0.00000000E+00
                      -8.33333333E-02 -1.25000000E-01  0.00000000E+00
                      -4.16666667E-02 -1.25000000E-01  4.16666667E-02
                      -4.16666667E-02 -2.50000000E-01  0.00000000E+00
                      -8.33333333E-02 -2.08333333E-01  0.00000000E+00
                      -4.16666667E-02 -2.08333333E-01  4.16666667E-02
                      -1.25000000E-01 -1.66666667E-01  0.00000000E+00
                      -8.33333333E-02 -1.66666667E-01  4.16666667E-02
                      -4.16666667E-02 -1.66666667E-01  8.33333333E-02
                      -4.16666667E-02 -3.33333333E-01  0.00000000E+00
                      -8.33333333E-02 -2.91666667E-01  0.00000000E+00
                      -4.16666667E-02 -2.91666667E-01  4.16666667E-02
                      -1.25000000E-01 -2.50000000E-01  0.00000000E+00
                      -8.33333333E-02 -2.50000000E-01  4.16666667E-02
                      -4.16666667E-02 -2.50000000E-01  8.33333333E-02
                      -1.66666667E-01 -2.08333333E-01  0.00000000E+00
                      -1.25000000E-01 -2.08333333E-01  4.16666667E-02
                      -8.33333333E-02 -2.08333333E-01  8.33333333E-02
                      -4.16666667E-02 -2.08333333E-01  1.25000000E-01
                      -4.16666667E-02 -4.16666667E-01  0.00000000E+00
                      -8.33333333E-02 -3.75000000E-01  0.00000000E+00
                      -4.16666667E-02 -3.75000000E-01  4.16666667E-02
                      -1.25000000E-01 -3.33333333E-01  0.00000000E+00
                      -8.33333333E-02 -3.33333333E-01  4.16666667E-02
                      -4.16666667E-02 -3.33333333E-01  8.33333333E-02
                      -1.66666667E-01 -2.91666667E-01  0.00000000E+00
                      -1.25000000E-01 -2.91666667E-01  4.16666667E-02
                      -8.33333333E-02 -2.91666667E-01  8.33333333E-02
                      -4.16666667E-02 -2.91666667E-01  1.25000000E-01
                      -2.08333333E-01 -2.50000000E-01  0.00000000E+00
                      -1.66666667E-01 -2.50000000E-01  4.16666667E-02
                      -1.25000000E-01 -2.50000000E-01  8.33333333E-02
                      -8.33333333E-02 -2.50000000E-01  1.25000000E-01
                      -4.16666667E-02 -2.50000000E-01  1.66666667E-01
                      -4.16666667E-02  5.00000000E-01  0.00000000E+00
                      -8.33333333E-02 -4.58333333E-01  0.00000000E+00
                      -4.16666667E-02 -4.58333333E-01  4.16666667E-02
                      -1.25000000E-01 -4.16666667E-01  0.00000000E+00
                      -8.33333333E-02 -4.16666667E-01  4.16666667E-02
                      -4.16666667E-02 -4.16666667E-01  8.33333333E-02
                      -1.66666667E-01 -3.75000000E-01  0.00000000E+00
                      -1.25000000E-01 -3.75000000E-01  4.16666667E-02
                      -8.33333333E-02 -3.75000000E-01  8.33333333E-02
                      -4.16666667E-02 -3.75000000E-01  1.25000000E-01
                      -2.08333333E-01 -3.33333333E-01  0.00000000E+00
                      -1.66666667E-01 -3.33333333E-01  4.16666667E-02
                      -1.25000000E-01 -3.33333333E-01  8.33333333E-02
                      -8.33333333E-02 -3.33333333E-01  1.25000000E-01
                      -4.16666667E-02 -3.33333333E-01  1.66666667E-01
                       outvar_i_n : Printing only first  50 k-points.
         kptrlatt1       2   -2    2     -2    2    2     -2   -2    2
         kptrlatt2       6   -6    6     -6    6    6     -6   -6    6
         kptrlatt3       8   -8    8     -8    8    8     -8   -8    8
         kptrlatt4      10  -10   10    -10   10   10    -10  -10   10
         kptrlatt5      12  -12   12    -12   12   12    -12  -12   12
          kptrlen1     2.03600000E+01
          kptrlen2     6.10800000E+01
          kptrlen3     8.14400000E+01
          kptrlen4     1.01800000E+02
          kptrlen5     1.22160000E+02
P           mkmem1          2
P           mkmem2         28
P           mkmem3         60
P           mkmem4        110
P           mkmem5        182
            natom           2
            nband1          5
            nband2          5
            nband3          5
            nband4          5
            nband5          5
           ndtset           5
            ngfft          50      50      50
             nkpt1          2
             nkpt2         28
             nkpt3         60
             nkpt4        110
             nkpt5        182
            nstep          10
             nsym          48
            ntime          10
           ntypat           1
              occ1     2.000000  2.000000  2.000000  2.000000  0.000000
              occ2     2.000000  2.000000  2.000000  2.000000  0.000000
              occ3     2.000000  2.000000  2.000000  2.000000  0.000000
              occ4     2.000000  2.000000  2.000000  2.000000  0.000000
              occ5     2.000000  2.000000  2.000000  2.000000  0.000000
          optcell           1
            rprim      0.0000000000E+00  5.0000000000E-01  5.0000000000E-01
                       5.0000000000E-01  0.0000000000E+00  5.0000000000E-01
                       5.0000000000E-01  5.0000000000E-01  0.0000000000E+00
           shiftk      5.00000000E-01  5.00000000E-01  5.00000000E-01
          spgroup         227
           strten1    -1.0270388690E-08 -1.0270388690E-08 -1.0270388690E-08
                       0.0000000000E+00  0.0000000000E+00  0.0000000000E+00
           strten2    -4.5617549902E-07 -4.5617549902E-07 -4.5617549902E-07
                       0.0000000000E+00  0.0000000000E+00  0.0000000000E+00
           strten3    -3.7943094474E-07 -3.7943094474E-07 -3.7943094474E-07
                       0.0000000000E+00  0.0000000000E+00  0.0000000000E+00
           strten4    -3.8592019726E-07 -3.8592019726E-07 -3.8592019726E-07
                       0.0000000000E+00  0.0000000000E+00  0.0000000000E+00
           strten5    -3.7472719122E-07 -3.7472719122E-07 -3.7472719122E-07
                       0.0000000000E+00  0.0000000000E+00  0.0000000000E+00
           symrel      1  0  0   0  1  0   0  0  1      -1  0  0   0 -1  0   0  0 -1
                       0 -1  1   0 -1  0   1 -1  0       0  1 -1   0  1  0  -1  1  0
                      -1  0  0  -1  0  1  -1  1  0       1  0  0   1  0 -1   1 -1  0
                       0  1 -1   1  0 -1   0  0 -1       0 -1  1  -1  0  1   0  0  1
                      -1  0  0  -1  1  0  -1  0  1       1  0  0   1 -1  0   1  0 -1
                       0 -1  1   1 -1  0   0 -1  0       0  1 -1  -1  1  0   0  1  0
                       1  0  0   0  0  1   0  1  0      -1  0  0   0  0 -1   0 -1  0
                       0  1 -1   0  0 -1   1  0 -1       0 -1  1   0  0  1  -1  0  1
                      -1  0  1  -1  1  0  -1  0  0       1  0 -1   1 -1  0   1  0  0
                       0 -1  0   1 -1  0   0 -1  1       0  1  0  -1  1  0   0  1 -1
                       1  0 -1   0  0 -1   0  1 -1      -1  0  1   0  0  1   0 -1  1
                       0  1  0   0  0  1   1  0  0       0 -1  0   0  0 -1  -1  0  0
                       1  0 -1   0  1 -1   0  0 -1      -1  0  1   0 -1  1   0  0  1
                       0 -1  0   0 -1  1   1 -1  0       0  1  0   0  1 -1  -1  1  0
                      -1  0  1  -1  0  0  -1  1  0       1  0 -1   1  0  0   1 -1  0
                       0  1  0   1  0  0   0  0  1       0 -1  0  -1  0  0   0  0 -1
                       0  0 -1   0  1 -1   1  0 -1       0  0  1   0 -1  1  -1  0  1
                       1 -1  0   0 -1  1   0 -1  0      -1  1  0   0  1 -1   0  1  0
                       0  0  1   1  0  0   0  1  0       0  0 -1  -1  0  0   0 -1  0
                      -1  1  0  -1  0  0  -1  0  1       1 -1  0   1  0  0   1  0 -1
                       0  0  1   0  1  0   1  0  0       0  0 -1   0 -1  0  -1  0  0
                       1 -1  0   0 -1  0   0 -1  1      -1  1  0   0  1  0   0  1 -1
                       0  0 -1   1  0 -1   0  1 -1       0  0  1  -1  0  1   0 -1  1
                      -1  1  0  -1  0  1  -1  0  0       1 -1  0   1  0 -1   1  0  0
            tnons      0.0000000  0.0000000  0.0000000     0.2500000  0.2500000  0.2500000
                       0.0000000  0.0000000  0.0000000     0.2500000  0.2500000  0.2500000
                       0.0000000  0.0000000  0.0000000     0.2500000  0.2500000  0.2500000
                       0.0000000  0.0000000  0.0000000     0.2500000  0.2500000  0.2500000
                       0.0000000  0.0000000  0.0000000     0.2500000  0.2500000  0.2500000
                       0.0000000  0.0000000  0.0000000     0.2500000  0.2500000  0.2500000
                       0.0000000  0.0000000  0.0000000     0.2500000  0.2500000  0.2500000
                       0.0000000  0.0000000  0.0000000     0.2500000  0.2500000  0.2500000
                       0.0000000  0.0000000  0.0000000     0.2500000  0.2500000  0.2500000
                       0.0000000  0.0000000  0.0000000     0.2500000  0.2500000  0.2500000
                       0.0000000  0.0000000  0.0000000     0.2500000  0.2500000  0.2500000
                       0.0000000  0.0000000  0.0000000     0.2500000  0.2500000  0.2500000
                       0.0000000  0.0000000  0.0000000     0.2500000  0.2500000  0.2500000
                       0.0000000  0.0000000  0.0000000     0.2500000  0.2500000  0.2500000
                       0.0000000  0.0000000  0.0000000     0.2500000  0.2500000  0.2500000
                       0.0000000  0.0000000  0.0000000     0.2500000  0.2500000  0.2500000
                       0.0000000  0.0000000  0.0000000     0.2500000  0.2500000  0.2500000
                       0.0000000  0.0000000  0.0000000     0.2500000  0.2500000  0.2500000
                       0.0000000  0.0000000  0.0000000     0.2500000  0.2500000  0.2500000
                       0.0000000  0.0000000  0.0000000     0.2500000  0.2500000  0.2500000
                       0.0000000  0.0000000  0.0000000     0.2500000  0.2500000  0.2500000
                       0.0000000  0.0000000  0.0000000     0.2500000  0.2500000  0.2500000
                       0.0000000  0.0000000  0.0000000     0.2500000  0.2500000  0.2500000
                       0.0000000  0.0000000  0.0000000     0.2500000  0.2500000  0.2500000
           toldfe      1.00000000E-06 Hartree
            typat      1  1
              wtk1       0.75000    0.25000
              wtk2       0.02778    0.02778    0.02778    0.05556    0.02778    0.02778
                         0.05556    0.02778    0.05556    0.05556    0.02778    0.02778
                         0.02778    0.05556    0.02778    0.05556    0.05556    0.05556
                         0.02778    0.02778    0.02778    0.02778    0.02778    0.05556
                         0.05556    0.00926    0.00926    0.00926
              wtk3       0.01172    0.01172    0.01172    0.02344    0.01172    0.01172
                         0.02344    0.01172    0.02344    0.02344    0.01172    0.01172
                         0.02344    0.01172    0.02344    0.02344    0.01172    0.02344
                         0.02344    0.02344    0.01172    0.01172    0.01172    0.02344
                         0.01172    0.02344    0.02344    0.02344    0.01172    0.02344
                         0.02344    0.02344    0.02344    0.01172    0.01172    0.01172
                         0.01172    0.01172    0.02344    0.02344    0.01172    0.02344
                         0.02344    0.02344    0.02344    0.02344    0.01172    0.01172
                         0.01172    0.01172
              wtk4       0.00600    0.00600    0.00600    0.01200    0.00600    0.00600
                         0.01200    0.00600    0.01200    0.01200    0.00600    0.00600
                         0.01200    0.00600    0.01200    0.01200    0.00600    0.01200
                         0.01200    0.01200    0.00600    0.00600    0.01200    0.00600
                         0.01200    0.01200    0.00600    0.01200    0.01200    0.01200
                         0.00600    0.01200    0.01200    0.01200    0.01200    0.00600
                         0.00600    0.00600    0.01200    0.00600    0.01200    0.01200
                         0.01200    0.00600    0.01200    0.01200    0.01200    0.01200
                         0.00600    0.01200
              wtk5       0.00347    0.00347    0.00347    0.00694    0.00347    0.00347
                         0.00694    0.00347    0.00694    0.00694    0.00347    0.00347
                         0.00694    0.00347    0.00694    0.00694    0.00347    0.00694
                         0.00694    0.00694    0.00347    0.00347    0.00694    0.00347
                         0.00694    0.00694    0.00347    0.00694    0.00694    0.00694
                         0.00347    0.00694    0.00694    0.00694    0.00694    0.00347
                         0.00347    0.00694    0.00347    0.00694    0.00694    0.00347
                         0.00694    0.00694    0.00694    0.00347    0.00694    0.00694
                         0.00694    0.00694
                       outvars : Printing only first  50 k-points.
           xangst1     9.0978802060E-32  9.0978802060E-32 -9.0974103524E-32
                       1.3512813407E+00  1.3512813407E+00  1.3512813407E+00
           xangst2     0.0000000000E+00  0.0000000000E+00  0.0000000000E+00
                       1.3494175618E+00  1.3494175618E+00  1.3494175618E+00
           xangst3     3.4189807076E-32 -1.1499060898E-31  1.9693207913E-31
                       1.3494344420E+00  1.3494344420E+00  1.3494344420E+00
           xangst4     0.0000000000E+00  0.0000000000E+00  0.0000000000E+00
                       1.3494343105E+00  1.3494343105E+00  1.3494343105E+00
           xangst5     0.0000000000E+00  0.0000000000E+00  0.0000000000E+00
                       1.3494359292E+00  1.3494359292E+00  1.3494359292E+00
            xcart1     1.7192501979E-31  1.7192501979E-31 -1.7191614085E-31
                       2.5535516625E+00  2.5535516625E+00  2.5535516625E+00
            xcart2     0.0000000000E+00  0.0000000000E+00  0.0000000000E+00
                       2.5500296308E+00  2.5500296308E+00  2.5500296308E+00
            xcart3     6.4609371910E-32 -2.1730075882E-31  3.7214769634E-31
                       2.5500615297E+00  2.5500615297E+00  2.5500615297E+00
            xcart4     0.0000000000E+00  0.0000000000E+00  0.0000000000E+00
                       2.5500612812E+00  2.5500612812E+00  2.5500612812E+00
            xcart5     0.0000000000E+00  0.0000000000E+00  0.0000000000E+00
                       2.5500643400E+00  2.5500643400E+00  2.5500643400E+00
             xred     -1.6831081134E-32 -1.6831081134E-32  5.0494981951E-32
                       2.5000000000E-01  2.5000000000E-01  2.5000000000E-01
            znucl       14.00000

================================================================================


- Timing analysis has been suppressed with timopt=0



================================================================================

 Suggested references for the acknowledgment of ABINIT usage.

 The users of ABINIT have little formal obligations with respect to the ABINIT group
 (those specified in the GNU General Public License, http://www.gnu.org/copyleft/gpl.txt).
 However, it is common practice in the scientific literature,
 to acknowledge the efforts of people that have made the research possible.
 In this spirit, please find below suggested citations of work written by ABINIT developers,
 corresponding to implementations inside of ABINIT that you have used in the present run.
 Note also that it will be of great value to readers of publications presenting these results,
 to read papers enabling them to understand the theoretical formalism and details
 of the ABINIT implementation.
 For information on why they are suggested, see also http://www.abinit.org/about/?text=acknowledgments.
-
- [1] Recent developments in the ABINIT software package
- X.Gonze, F.Jollet, F.Abreu Araujo, D.Adams, B.Amadon, T.Applencourt,
- C.Audouze, J.-M.Beuken, J.Bieder, A.Bokhanchuk, E.Bousquet, F.Bruneval
- D.Caliste, M.Cote, F.Dahm, F.Da Pieve, M.Delaveau, M.Di Gennaro,
- B.Dorado, C.Espejo, G.Geneste, L.Genovese, A.Gerossier, M.Giantomassi,
- Y.Gillet, D.R.Hamann, L.He, G.Jomard, J.Laflamme Janssen, S.Le Roux,
- A.Levitt, A.Lherbier, F.Liu, I.Lukacevic, A.Martin, C.Martins,
- M.J.T.Oliveira, S.Ponce, Y.Pouillon, T.Rangel, G.-M.Rignanese,
- A.H.Romero, B.Rousseau, O.Rubel, A.A.Shukri, M.Stankovski, M.Torrent,
- Comment : the fourth generic paper describing the ABINIT project.
- Note that a version of this paper, that is not formatted for Computer Phys. Comm. 
- is available at http://www.abinit.org/about/ABINIT16.pdf .
- The licence allows the authors to put it on the Web.
-
- [2] ABINIT : First-principles approach of materials and nanosystem properties.
- X. Gonze, B. Amadon, P.-M. Anglade, J.-M. Beuken, F. Bottin, P. Boulanger, F. Bruneval,
- D. Caliste, R. Caracas, M. Cote, T. Deutsch, L. Genovese, Ph. Ghosez, M. Giantomassi
- S. Goedecker, D.R. Hamann, P. Hermet, F. Jollet, G. Jomard, S. Leroux, M. Mancini, S. Mazevet,
- M.J.T. Oliveira, G. Onida, Y. Pouillon, T. Rangel, G.-M. Rignanese, D. Sangalli, R. Shaltaf,
- M. Torrent, M.J. Verstraete, G. Zerah, J.W. Zwanziger
- Computer Phys. Comm. 180, 2582-2615 (2009).
- Comment : the third generic paper describing the ABINIT project.
- Note that a version of this paper, that is not formatted for Computer Phys. Comm. 
- is available at http://www.abinit.org/about/ABINIT_CPC_v10.pdf .
- The licence allows the authors to put it on the Web.
-
- [3] A brief introduction to the ABINIT software package.
- X. Gonze, G.-M. Rignanese, M. Verstraete, J.-M. Beuken, Y. Pouillon, R. Caracas, F. Jollet,
- M. Torrent, G. Zerah, M. Mikami, Ph. Ghosez, M. Veithen, J.-Y. Raty, V. Olevano, F. Bruneval,
- L. Reining, R. Godby, G. Onida, D.R. Hamann, and D.C. Allan.
- Z. Kristallogr. 220, 558-562 (2005).
- Comment : the second generic paper describing the ABINIT project. Note that this paper
- should be cited especially if you are using the GW part of ABINIT, as several authors
- of this part are not in the list of authors of the first or third paper.
- The .pdf of the latter paper is available at http://www.abinit.org/about/zfk_0505-06_558-562.pdf.
- Note that it should not redistributed (Copyright by Oldenburg Wissenshaftverlag,
- the licence allows the authors to put it on the Web).
-
- And optionally:
-
- [4] First-principles computation of material properties : the ABINIT software project. 
- X. Gonze, J.-M. Beuken, R. Caracas, F. Detraux, M. Fuchs, G.-M. Rignanese, L. Sindic,
- M. Verstraete, G. Zerah, F. Jollet, M. Torrent, A. Roy, M. Mikami, Ph. Ghosez, J.-Y. Raty, D.C. Allan.
- Computational Materials Science 25, 478-492 (2002). http://dx.doi.org/10.1016/S0927-0256(02)00325-7
- Comment : the original paper describing the ABINIT project.
-
- Proc.   0 individual time (sec): cpu=        784.0  wall=        790.8

================================================================================

 Calculation completed.
.Delivered  12 WARNINGs and   0 COMMENTs to log file.
+Overall time at end (sec) : cpu=        784.0  wall=        790.8
