## SLURM PROLOG ###############################################################
##    Job ID : 19320831
##  Job Name : abinit_ecut_opt
##  Nodelist : node831
##      CPUs : 
##  Mem/Node : 49152 MB
## Directory : /gpfs/scratch/ssamanta/ENGN_2930/ecut_optimise
##   Started : Thu Apr 26 11:40:55 EDT 2018
###############################################################################
module: loading 'abinit/8.0.7'
  ABINIT 8.0.7
  
  Give name for formatted input file: 
Si_in.txt
  Give name for formatted output file:
Si_out.txt
  Give root name for generic input files:
Si_i
  Give root name for generic output files:
Si_o
  Give root name for generic temporary files:
Si_

.Version 8.0.7 of ABINIT 
.(MPI version, prepared for a x86_64_linux_gnu4.9 computer) 

.Copyright (C) 1998-2016 ABINIT group . 
 ABINIT comes with ABSOLUTELY NO WARRANTY.
 It is free software, and you are welcome to redistribute it
 under certain conditions (GNU General Public License,
 see ~abinit/COPYING or http://www.gnu.org/copyleft/gpl.txt).

 ABINIT is a project of the Universite Catholique de Louvain,
 Corning Inc. and other collaborators, see ~abinit/doc/developers/contributors.txt .
 Please read ~abinit/doc/users/acknowledgments.html for suggested
 acknowledgments of the ABINIT effort.
 For more information, see http://www.abinit.org .

.Starting date : Thu 26 Apr 2018.
- ( at 11h40 )
  

 ++++++++++++++++++++++++++++++++++++++++++++++++++++++++++++++++++++++++++++++

 === Build Information === 
  Version       : 8.0.7
  Build target  : x86_64_linux_gnu4.9
  Build date    : 20160627

 === Compiler Suite === 
  C compiler       : gnu4.9
  C++ compiler     : gnu4.9
  Fortran compiler : gnu4.9
  CFLAGS           :  -g -O2 -mtune=native -march=native
  CXXFLAGS         :  -g -O2 -mtune=native -march=native
  FCFLAGS          :  -g -ffree-line-length-none
  FC_LDFLAGS       : 

 === Optimizations === 
  Debug level        : basic
  Optimization level : standard
  Architecture       : intel_xeon

 === Multicore === 
  Parallel build : yes
  Parallel I/O   : auto
  openMP support : no
  GPU support    : no

 === Connectors / Fallbacks === 
  Connectors on : yes
  Fallbacks on  : yes
  DFT flavor    : none
  FFT flavor    : none
  LINALG flavor : netlib-fallback
  MATH flavor   : none
  TIMER flavor  : abinit
  TRIO flavor   : none

 === Experimental features === 
  Bindings            : @enable_bindings@
  Exports             : no
  GW double-precision : no

 ++++++++++++++++++++++++++++++++++++++++++++++++++++++++++++++++++++++++++++++


 ++++++++++++++++++++++++++++++++++++++++++++++++++++++++++++++++++++++++++++++
 Default optimizations:
   -O2 -mtune=native -march=native


 Optimizations for 20_datashare:
   -O0


 ++++++++++++++++++++++++++++++++++++++++++++++++++++++++++++++++++++++++++++++


 ++++++++++++++++++++++++++++++++++++++++++++++++++++++++++++++++++++++++++++++
 CPP options activated during the build:

                    CC_GNU                   CXX_GNU                    FC_GNU
 
 HAVE_FC_ALLOCATABLE_DT...             HAVE_FC_ASYNC         HAVE_FC_BACKTRACE
 
  HAVE_FC_COMMAND_ARGUMENT      HAVE_FC_COMMAND_LINE        HAVE_FC_CONTIGUOUS
 
           HAVE_FC_CPUTIME              HAVE_FC_EXIT             HAVE_FC_FLUSH
 
             HAVE_FC_GAMMA            HAVE_FC_GETENV          HAVE_FC_INT_QUAD
 
             HAVE_FC_IOMSG     HAVE_FC_ISO_C_BINDING  HAVE_FC_ISO_FORTRAN_2008
 
        HAVE_FC_LONG_LINES        HAVE_FC_MOVE_ALLOC           HAVE_FC_PRIVATE
 
         HAVE_FC_PROTECTED         HAVE_FC_STREAM_IO            HAVE_FC_SYSTEM
 
          HAVE_FORTRAN2003        HAVE_LIBPAW_ABINIT      HAVE_LIBTETRA_ABINIT
 
                  HAVE_MPI                 HAVE_MPI1               HAVE_MPI_IO
 
 HAVE_MPI_TYPE_CREATE_S...                HAVE_NUMPY             HAVE_OS_LINUX
 
                HAVE_TIMER         HAVE_TIMER_ABINIT            HAVE_TIMER_MPI
 
         HAVE_TIMER_SERIAL              USE_MACROAVE                            
 ++++++++++++++++++++++++++++++++++++++++++++++++++++++++++++++++++++++++++++++

- input  file    -> Si_in.txt
- output file    -> Si_out.txt
- root for input  files -> Si_i
- root for output files -> Si_o

-instrng: 66 lines of input have been read from file Si_in.txt

  status : statnu, output_rate, shift_rate=           1           0           1
 level,routine=           3 init istatr   
 active(level)=           1
 counter,actual_counter(level,1:2)=           0           0           0
 List of active levels :
  Active level number=           3

 Please give name of formatted atomic psp file
 iofn2 : for atom type 1, psp file is 14si.txt
  read the values zionpsp=  4.0 , pspcod=   1 , lmax=   2

 inpspheads: deduce mpsang = 3, n1xccc = 2501.

 invars1m : enter jdtset= 1
 invars1 : treat image number: 1

 symlatt : the Bravais lattice is cF (face-centered cubic)
  xred   is defined in input file
 ingeo : takes atomic coordinates from input array xred

 symlatt : the Bravais lattice is cF (face-centered cubic)

 symlatt : the Bravais lattice is cF (face-centered cubic)
 symspgr : spgroup= 227  Fd -3 m   (=Oh^7)
 ingeo : angdeg(1:3)=   60.00000000   60.00000000   60.00000000
       Simple Lattice Grid

 invars1m : enter jdtset= 2
 invars1 : treat image number: 1

 symlatt : the Bravais lattice is cF (face-centered cubic)
  xred   is defined in input file
 ingeo : takes atomic coordinates from input array xred

 symlatt : the Bravais lattice is cF (face-centered cubic)

 symlatt : the Bravais lattice is cF (face-centered cubic)
 symspgr : spgroup= 227  Fd -3 m   (=Oh^7)
 ingeo : angdeg(1:3)=   60.00000000   60.00000000   60.00000000
       Simple Lattice Grid

 invars1m : enter jdtset= 3
 invars1 : treat image number: 1

 symlatt : the Bravais lattice is cF (face-centered cubic)
  xred   is defined in input file
 ingeo : takes atomic coordinates from input array xred

 symlatt : the Bravais lattice is cF (face-centered cubic)

 symlatt : the Bravais lattice is cF (face-centered cubic)
 symspgr : spgroup= 227  Fd -3 m   (=Oh^7)
 ingeo : angdeg(1:3)=   60.00000000   60.00000000   60.00000000
       Simple Lattice Grid

 invars1m : enter jdtset= 4
 invars1 : treat image number: 1

 symlatt : the Bravais lattice is cF (face-centered cubic)
  xred   is defined in input file
 ingeo : takes atomic coordinates from input array xred

 symlatt : the Bravais lattice is cF (face-centered cubic)

 symlatt : the Bravais lattice is cF (face-centered cubic)
 symspgr : spgroup= 227  Fd -3 m   (=Oh^7)
 ingeo : angdeg(1:3)=   60.00000000   60.00000000   60.00000000
       Simple Lattice Grid

 invars1m : enter jdtset= 5
 invars1 : treat image number: 1

 symlatt : the Bravais lattice is cF (face-centered cubic)
  xred   is defined in input file
 ingeo : takes atomic coordinates from input array xred

 symlatt : the Bravais lattice is cF (face-centered cubic)

 symlatt : the Bravais lattice is cF (face-centered cubic)
 symspgr : spgroup= 227  Fd -3 m   (=Oh^7)
 ingeo : angdeg(1:3)=   60.00000000   60.00000000   60.00000000
       Simple Lattice Grid

 invars1m : enter jdtset= 6
 invars1 : treat image number: 1

 symlatt : the Bravais lattice is cF (face-centered cubic)
  xred   is defined in input file
 ingeo : takes atomic coordinates from input array xred

 symlatt : the Bravais lattice is cF (face-centered cubic)

 symlatt : the Bravais lattice is cF (face-centered cubic)
 symspgr : spgroup= 227  Fd -3 m   (=Oh^7)
 ingeo : angdeg(1:3)=   60.00000000   60.00000000   60.00000000
       Simple Lattice Grid

 invars1m : enter jdtset= 7
 invars1 : treat image number: 1

 symlatt : the Bravais lattice is cF (face-centered cubic)
  xred   is defined in input file
 ingeo : takes atomic coordinates from input array xred

 symlatt : the Bravais lattice is cF (face-centered cubic)

 symlatt : the Bravais lattice is cF (face-centered cubic)
 symspgr : spgroup= 227  Fd -3 m   (=Oh^7)
 ingeo : angdeg(1:3)=   60.00000000   60.00000000   60.00000000
       Simple Lattice Grid

 invars1m : enter jdtset= 8
 invars1 : treat image number: 1

 symlatt : the Bravais lattice is cF (face-centered cubic)
  xred   is defined in input file
 ingeo : takes atomic coordinates from input array xred

 symlatt : the Bravais lattice is cF (face-centered cubic)

 symlatt : the Bravais lattice is cF (face-centered cubic)
 symspgr : spgroup= 227  Fd -3 m   (=Oh^7)
 ingeo : angdeg(1:3)=   60.00000000   60.00000000   60.00000000
       Simple Lattice Grid

 invars1m : enter jdtset= 9
 invars1 : treat image number: 1

 symlatt : the Bravais lattice is cF (face-centered cubic)
  xred   is defined in input file
 ingeo : takes atomic coordinates from input array xred

 symlatt : the Bravais lattice is cF (face-centered cubic)

 symlatt : the Bravais lattice is cF (face-centered cubic)
 symspgr : spgroup= 227  Fd -3 m   (=Oh^7)
 ingeo : angdeg(1:3)=   60.00000000   60.00000000   60.00000000
       Simple Lattice Grid

 invars1m : enter jdtset= 10
 invars1 : treat image number: 1

 symlatt : the Bravais lattice is cF (face-centered cubic)
  xred   is defined in input file
 ingeo : takes atomic coordinates from input array xred

 symlatt : the Bravais lattice is cF (face-centered cubic)

 symlatt : the Bravais lattice is cF (face-centered cubic)
 symspgr : spgroup= 227  Fd -3 m   (=Oh^7)
 ingeo : angdeg(1:3)=   60.00000000   60.00000000   60.00000000
       Simple Lattice Grid

 invars1m : enter jdtset= 11
 invars1 : treat image number: 1

 symlatt : the Bravais lattice is cF (face-centered cubic)
  xred   is defined in input file
 ingeo : takes atomic coordinates from input array xred

 symlatt : the Bravais lattice is cF (face-centered cubic)

 symlatt : the Bravais lattice is cF (face-centered cubic)
 symspgr : spgroup= 227  Fd -3 m   (=Oh^7)
 ingeo : angdeg(1:3)=   60.00000000   60.00000000   60.00000000
       Simple Lattice Grid

 invars1m : enter jdtset= 12
 invars1 : treat image number: 1

 symlatt : the Bravais lattice is cF (face-centered cubic)
  xred   is defined in input file
 ingeo : takes atomic coordinates from input array xred

 symlatt : the Bravais lattice is cF (face-centered cubic)

 symlatt : the Bravais lattice is cF (face-centered cubic)
 symspgr : spgroup= 227  Fd -3 m   (=Oh^7)
 ingeo : angdeg(1:3)=   60.00000000   60.00000000   60.00000000
       Simple Lattice Grid

 invars1m : enter jdtset= 13
 invars1 : treat image number: 1

 symlatt : the Bravais lattice is cF (face-centered cubic)
  xred   is defined in input file
 ingeo : takes atomic coordinates from input array xred

 symlatt : the Bravais lattice is cF (face-centered cubic)

 symlatt : the Bravais lattice is cF (face-centered cubic)
 symspgr : spgroup= 227  Fd -3 m   (=Oh^7)
 ingeo : angdeg(1:3)=   60.00000000   60.00000000   60.00000000
       Simple Lattice Grid

 invars1m : enter jdtset= 14
 invars1 : treat image number: 1

 symlatt : the Bravais lattice is cF (face-centered cubic)
  xred   is defined in input file
 ingeo : takes atomic coordinates from input array xred

 symlatt : the Bravais lattice is cF (face-centered cubic)

 symlatt : the Bravais lattice is cF (face-centered cubic)
 symspgr : spgroup= 227  Fd -3 m   (=Oh^7)
 ingeo : angdeg(1:3)=   60.00000000   60.00000000   60.00000000
       Simple Lattice Grid

 invars1m : enter jdtset= 15
 invars1 : treat image number: 1

 symlatt : the Bravais lattice is cF (face-centered cubic)
  xred   is defined in input file
 ingeo : takes atomic coordinates from input array xred

 symlatt : the Bravais lattice is cF (face-centered cubic)

 symlatt : the Bravais lattice is cF (face-centered cubic)
 symspgr : spgroup= 227  Fd -3 m   (=Oh^7)
 ingeo : angdeg(1:3)=   60.00000000   60.00000000   60.00000000
       Simple Lattice Grid

 invars1m : enter jdtset= 16
 invars1 : treat image number: 1

 symlatt : the Bravais lattice is cF (face-centered cubic)
  xred   is defined in input file
 ingeo : takes atomic coordinates from input array xred

 symlatt : the Bravais lattice is cF (face-centered cubic)

 symlatt : the Bravais lattice is cF (face-centered cubic)
 symspgr : spgroup= 227  Fd -3 m   (=Oh^7)
 ingeo : angdeg(1:3)=   60.00000000   60.00000000   60.00000000
       Simple Lattice Grid

 invars1m : enter jdtset= 17
 invars1 : treat image number: 1

 symlatt : the Bravais lattice is cF (face-centered cubic)
  xred   is defined in input file
 ingeo : takes atomic coordinates from input array xred

 symlatt : the Bravais lattice is cF (face-centered cubic)

 symlatt : the Bravais lattice is cF (face-centered cubic)
 symspgr : spgroup= 227  Fd -3 m   (=Oh^7)
 ingeo : angdeg(1:3)=   60.00000000   60.00000000   60.00000000
       Simple Lattice Grid

 invars1m : enter jdtset= 18
 invars1 : treat image number: 1

 symlatt : the Bravais lattice is cF (face-centered cubic)
  xred   is defined in input file
 ingeo : takes atomic coordinates from input array xred

 symlatt : the Bravais lattice is cF (face-centered cubic)

 symlatt : the Bravais lattice is cF (face-centered cubic)
 symspgr : spgroup= 227  Fd -3 m   (=Oh^7)
 ingeo : angdeg(1:3)=   60.00000000   60.00000000   60.00000000
       Simple Lattice Grid

 invars1m : enter jdtset= 19
 invars1 : treat image number: 1

 symlatt : the Bravais lattice is cF (face-centered cubic)
  xred   is defined in input file
 ingeo : takes atomic coordinates from input array xred

 symlatt : the Bravais lattice is cF (face-centered cubic)

 symlatt : the Bravais lattice is cF (face-centered cubic)
 symspgr : spgroup= 227  Fd -3 m   (=Oh^7)
 ingeo : angdeg(1:3)=   60.00000000   60.00000000   60.00000000
       Simple Lattice Grid

 invars1m : enter jdtset= 20
 invars1 : treat image number: 1

 symlatt : the Bravais lattice is cF (face-centered cubic)
  xred   is defined in input file
 ingeo : takes atomic coordinates from input array xred

 symlatt : the Bravais lattice is cF (face-centered cubic)

 symlatt : the Bravais lattice is cF (face-centered cubic)
 symspgr : spgroup= 227  Fd -3 m   (=Oh^7)
 ingeo : angdeg(1:3)=   60.00000000   60.00000000   60.00000000
       Simple Lattice Grid

 invars1m : enter jdtset= 21
 invars1 : treat image number: 1

 symlatt : the Bravais lattice is cF (face-centered cubic)
  xred   is defined in input file
 ingeo : takes atomic coordinates from input array xred

 symlatt : the Bravais lattice is cF (face-centered cubic)

 symlatt : the Bravais lattice is cF (face-centered cubic)
 symspgr : spgroup= 227  Fd -3 m   (=Oh^7)
 ingeo : angdeg(1:3)=   60.00000000   60.00000000   60.00000000
       Simple Lattice Grid

 invars1m : enter jdtset= 22
 invars1 : treat image number: 1

 symlatt : the Bravais lattice is cF (face-centered cubic)
  xred   is defined in input file
 ingeo : takes atomic coordinates from input array xred

 symlatt : the Bravais lattice is cF (face-centered cubic)

 symlatt : the Bravais lattice is cF (face-centered cubic)
 symspgr : spgroup= 227  Fd -3 m   (=Oh^7)
 ingeo : angdeg(1:3)=   60.00000000   60.00000000   60.00000000
       Simple Lattice Grid
 invars2: take the default value of fband=  1.25000000E-01
       Simple Lattice Grid
 
 invars2 : Printing the k point grid (values of kptns - max 100 of them)
 nkpt=     110
     ikpt istwfk    wtk       --------- reduced coordinates ---------  --------- cartesian coordinates ---------
       1     1  6.000000E-03 -5.000000E-02 -1.000000E-01  0.000000E+00 -4.911591E-03  4.911591E-03 -1.473477E-02
       2     1  6.000000E-03 -5.000000E-02 -2.000000E-01  0.000000E+00 -1.473477E-02  1.473477E-02 -2.455796E-02
       3     1  6.000000E-03 -1.000000E-01 -1.500000E-01  0.000000E+00 -4.911591E-03  4.911591E-03 -2.455796E-02
       4     1  1.200000E-02 -5.000000E-02 -1.500000E-01  5.000000E-02 -4.911591E-03  1.473477E-02 -2.455796E-02
       5     1  6.000000E-03 -5.000000E-02 -3.000000E-01  0.000000E+00 -2.455796E-02  2.455796E-02 -3.438114E-02
       6     1  6.000000E-03 -1.000000E-01 -2.500000E-01  0.000000E+00 -1.473477E-02  1.473477E-02 -3.438114E-02
       7     1  1.200000E-02 -5.000000E-02 -2.500000E-01  5.000000E-02 -1.473477E-02  2.455796E-02 -3.438114E-02
       8     1  6.000000E-03 -1.500000E-01 -2.000000E-01  0.000000E+00 -4.911591E-03  4.911591E-03 -3.438114E-02
       9     1  1.200000E-02 -1.000000E-01 -2.000000E-01  5.000000E-02 -4.911591E-03  1.473477E-02 -3.438114E-02
      10     1  1.200000E-02 -5.000000E-02 -2.000000E-01  1.000000E-01 -4.911591E-03  2.455796E-02 -3.438114E-02
      11     1  6.000000E-03 -5.000000E-02 -4.000000E-01  0.000000E+00 -3.438114E-02  3.438114E-02 -4.420432E-02
      12     1  6.000000E-03 -1.000000E-01 -3.500000E-01  0.000000E+00 -2.455796E-02  2.455796E-02 -4.420432E-02
      13     1  1.200000E-02 -5.000000E-02 -3.500000E-01  5.000000E-02 -2.455796E-02  3.438114E-02 -4.420432E-02
      14     1  6.000000E-03 -1.500000E-01 -3.000000E-01  0.000000E+00 -1.473477E-02  1.473477E-02 -4.420432E-02
      15     1  1.200000E-02 -1.000000E-01 -3.000000E-01  5.000000E-02 -1.473477E-02  2.455796E-02 -4.420432E-02
      16     1  1.200000E-02 -5.000000E-02 -3.000000E-01  1.000000E-01 -1.473477E-02  3.438114E-02 -4.420432E-02
      17     1  6.000000E-03 -2.000000E-01 -2.500000E-01  0.000000E+00 -4.911591E-03  4.911591E-03 -4.420432E-02
      18     1  1.200000E-02 -1.500000E-01 -2.500000E-01  5.000000E-02 -4.911591E-03  1.473477E-02 -4.420432E-02
      19     1  1.200000E-02 -1.000000E-01 -2.500000E-01  1.000000E-01 -4.911591E-03  2.455796E-02 -4.420432E-02
      20     1  1.200000E-02 -5.000000E-02 -2.500000E-01  1.500000E-01 -4.911591E-03  3.438114E-02 -4.420432E-02
      21     1  6.000000E-03 -5.000000E-02  5.000000E-01  0.000000E+00  5.402750E-02 -5.402750E-02  4.420432E-02
      22     1  6.000000E-03 -1.000000E-01 -4.500000E-01  0.000000E+00 -3.438114E-02  3.438114E-02 -5.402750E-02
      23     1  1.200000E-02 -5.000000E-02 -4.500000E-01  5.000000E-02 -3.438114E-02  4.420432E-02 -5.402750E-02
      24     1  6.000000E-03 -1.500000E-01 -4.000000E-01  0.000000E+00 -2.455796E-02  2.455796E-02 -5.402750E-02
      25     1  1.200000E-02 -1.000000E-01 -4.000000E-01  5.000000E-02 -2.455796E-02  3.438114E-02 -5.402750E-02
      26     1  1.200000E-02 -5.000000E-02 -4.000000E-01  1.000000E-01 -2.455796E-02  4.420432E-02 -5.402750E-02
      27     1  6.000000E-03 -2.000000E-01 -3.500000E-01  0.000000E+00 -1.473477E-02  1.473477E-02 -5.402750E-02
      28     1  1.200000E-02 -1.500000E-01 -3.500000E-01  5.000000E-02 -1.473477E-02  2.455796E-02 -5.402750E-02
      29     1  1.200000E-02 -1.000000E-01 -3.500000E-01  1.000000E-01 -1.473477E-02  3.438114E-02 -5.402750E-02
      30     1  1.200000E-02 -5.000000E-02 -3.500000E-01  1.500000E-01 -1.473477E-02  4.420432E-02 -5.402750E-02
      31     1  6.000000E-03 -2.500000E-01 -3.000000E-01  0.000000E+00 -4.911591E-03  4.911591E-03 -5.402750E-02
      32     1  1.200000E-02 -2.000000E-01 -3.000000E-01  5.000000E-02 -4.911591E-03  1.473477E-02 -5.402750E-02
      33     1  1.200000E-02 -1.500000E-01 -3.000000E-01  1.000000E-01 -4.911591E-03  2.455796E-02 -5.402750E-02
      34     1  1.200000E-02 -1.000000E-01 -3.000000E-01  1.500000E-01 -4.911591E-03  3.438114E-02 -5.402750E-02
      35     1  1.200000E-02 -5.000000E-02 -3.000000E-01  2.000000E-01 -4.911591E-03  4.420432E-02 -5.402750E-02
      36     1  6.000000E-03 -5.000000E-02  4.000000E-01  0.000000E+00  4.420432E-02 -4.420432E-02  3.438114E-02
      37     1  6.000000E-03 -1.000000E-01  4.500000E-01  0.000000E+00  5.402750E-02 -5.402750E-02  3.438114E-02
      38     1  6.000000E-03 -1.500000E-01  5.000000E-01  0.000000E+00  6.385069E-02 -6.385069E-02  3.438114E-02
      39     1  1.200000E-02 -1.000000E-01  5.000000E-01  5.000000E-02  6.385069E-02 -5.402750E-02  3.438114E-02
      40     1  6.000000E-03 -2.000000E-01 -4.500000E-01  0.000000E+00 -2.455796E-02  2.455796E-02 -6.385069E-02
      41     1  1.200000E-02 -1.500000E-01 -4.500000E-01  5.000000E-02 -2.455796E-02  3.438114E-02 -6.385069E-02
      42     1  1.200000E-02 -1.000000E-01 -4.500000E-01  1.000000E-01 -2.455796E-02  4.420432E-02 -6.385069E-02
      43     1  1.200000E-02 -5.000000E-02 -4.500000E-01  1.500000E-01 -2.455796E-02  5.402750E-02 -6.385069E-02
      44     1  6.000000E-03 -2.500000E-01 -4.000000E-01  0.000000E+00 -1.473477E-02  1.473477E-02 -6.385069E-02
      45     1  1.200000E-02 -2.000000E-01 -4.000000E-01  5.000000E-02 -1.473477E-02  2.455796E-02 -6.385069E-02
      46     1  1.200000E-02 -1.500000E-01 -4.000000E-01  1.000000E-01 -1.473477E-02  3.438114E-02 -6.385069E-02
      47     1  1.200000E-02 -1.000000E-01 -4.000000E-01  1.500000E-01 -1.473477E-02  4.420432E-02 -6.385069E-02
      48     1  1.200000E-02 -5.000000E-02 -4.000000E-01  2.000000E-01 -1.473477E-02  5.402750E-02 -6.385069E-02
      49     1  6.000000E-03 -3.000000E-01 -3.500000E-01  0.000000E+00 -4.911591E-03  4.911591E-03 -6.385069E-02
      50     1  1.200000E-02 -2.500000E-01 -3.500000E-01  5.000000E-02 -4.911591E-03  1.473477E-02 -6.385069E-02
      51     1  1.200000E-02 -2.000000E-01 -3.500000E-01  1.000000E-01 -4.911591E-03  2.455796E-02 -6.385069E-02
      52     1  1.200000E-02 -1.500000E-01 -3.500000E-01  1.500000E-01 -4.911591E-03  3.438114E-02 -6.385069E-02
      53     1  1.200000E-02 -1.000000E-01 -3.500000E-01  2.000000E-01 -4.911591E-03  4.420432E-02 -6.385069E-02
      54     1  1.200000E-02 -5.000000E-02 -3.500000E-01  2.500000E-01 -4.911591E-03  5.402750E-02 -6.385069E-02
      55     1  6.000000E-03 -5.000000E-02  3.000000E-01  0.000000E+00  3.438114E-02 -3.438114E-02  2.455796E-02
      56     1  6.000000E-03 -1.000000E-01  3.500000E-01  0.000000E+00  4.420432E-02 -4.420432E-02  2.455796E-02
      57     1  6.000000E-03 -1.500000E-01  4.000000E-01  0.000000E+00  5.402750E-02 -5.402750E-02  2.455796E-02
      58     1  6.000000E-03 -2.000000E-01  4.500000E-01  0.000000E+00  6.385069E-02 -6.385069E-02  2.455796E-02
      59     1  6.000000E-03 -2.500000E-01  5.000000E-01  0.000000E+00  7.367387E-02 -7.367387E-02  2.455796E-02
      60     1  1.200000E-02 -2.000000E-01  5.000000E-01  5.000000E-02  7.367387E-02 -6.385069E-02  2.455796E-02
      61     1  1.200000E-02 -1.500000E-01  5.000000E-01  1.000000E-01  7.367387E-02 -5.402750E-02  2.455796E-02
      62     1  6.000000E-03 -3.000000E-01 -4.500000E-01  0.000000E+00 -1.473477E-02  1.473477E-02 -7.367387E-02
      63     1  1.200000E-02 -2.500000E-01 -4.500000E-01  5.000000E-02 -1.473477E-02  2.455796E-02 -7.367387E-02
      64     1  1.200000E-02 -2.000000E-01 -4.500000E-01  1.000000E-01 -1.473477E-02  3.438114E-02 -7.367387E-02
      65     1  1.200000E-02 -1.500000E-01 -4.500000E-01  1.500000E-01 -1.473477E-02  4.420432E-02 -7.367387E-02
      66     1  1.200000E-02 -1.000000E-01 -4.500000E-01  2.000000E-01 -1.473477E-02  5.402750E-02 -7.367387E-02
      67     1  1.200000E-02 -5.000000E-02 -4.500000E-01  2.500000E-01 -1.473477E-02  6.385069E-02 -7.367387E-02
      68     1  6.000000E-03 -3.500000E-01 -4.000000E-01  0.000000E+00 -4.911591E-03  4.911591E-03 -7.367387E-02
      69     1  1.200000E-02 -3.000000E-01 -4.000000E-01  5.000000E-02 -4.911591E-03  1.473477E-02 -7.367387E-02
      70     1  1.200000E-02 -2.500000E-01 -4.000000E-01  1.000000E-01 -4.911591E-03  2.455796E-02 -7.367387E-02
      71     1  1.200000E-02 -2.000000E-01 -4.000000E-01  1.500000E-01 -4.911591E-03  3.438114E-02 -7.367387E-02
      72     1  1.200000E-02 -1.500000E-01 -4.000000E-01  2.000000E-01 -4.911591E-03  4.420432E-02 -7.367387E-02
      73     1  1.200000E-02 -1.000000E-01 -4.000000E-01  2.500000E-01 -4.911591E-03  5.402750E-02 -7.367387E-02
      74     1  1.200000E-02 -5.000000E-02 -4.000000E-01  3.000000E-01 -4.911591E-03  6.385069E-02 -7.367387E-02
      75     1  6.000000E-03 -5.000000E-02  2.000000E-01  0.000000E+00  2.455796E-02 -2.455796E-02  1.473477E-02
      76     1  6.000000E-03 -1.000000E-01  2.500000E-01  0.000000E+00  3.438114E-02 -3.438114E-02  1.473477E-02
      77     1  6.000000E-03 -1.500000E-01  3.000000E-01  0.000000E+00  4.420432E-02 -4.420432E-02  1.473477E-02
      78     1  6.000000E-03 -2.000000E-01  3.500000E-01  0.000000E+00  5.402750E-02 -5.402750E-02  1.473477E-02
      79     1  6.000000E-03 -2.500000E-01  4.000000E-01  0.000000E+00  6.385069E-02 -6.385069E-02  1.473477E-02
      80     1  6.000000E-03 -3.000000E-01  4.500000E-01  0.000000E+00  7.367387E-02 -7.367387E-02  1.473477E-02
      81     1  6.000000E-03 -3.500000E-01  5.000000E-01  0.000000E+00  8.349705E-02 -8.349705E-02  1.473477E-02
      82     1  1.200000E-02 -3.000000E-01  5.000000E-01  5.000000E-02  8.349705E-02 -7.367387E-02  1.473477E-02
      83     1  1.200000E-02 -2.500000E-01  5.000000E-01  1.000000E-01  8.349705E-02 -6.385069E-02  1.473477E-02
      84     1  1.200000E-02 -2.000000E-01  5.000000E-01  1.500000E-01  8.349705E-02 -5.402750E-02  1.473477E-02
      85     1  6.000000E-03 -4.000000E-01 -4.500000E-01  0.000000E+00 -4.911591E-03  4.911591E-03 -8.349705E-02
      86     1  1.200000E-02 -3.500000E-01 -4.500000E-01  5.000000E-02 -4.911591E-03  1.473477E-02 -8.349705E-02
      87     1  1.200000E-02 -3.000000E-01 -4.500000E-01  1.000000E-01 -4.911591E-03  2.455796E-02 -8.349705E-02
      88     1  1.200000E-02 -2.500000E-01 -4.500000E-01  1.500000E-01 -4.911591E-03  3.438114E-02 -8.349705E-02
      89     1  1.200000E-02 -2.000000E-01 -4.500000E-01  2.000000E-01 -4.911591E-03  4.420432E-02 -8.349705E-02
      90     1  1.200000E-02 -1.500000E-01 -4.500000E-01  2.500000E-01 -4.911591E-03  5.402750E-02 -8.349705E-02
      91     1  1.200000E-02 -1.000000E-01 -4.500000E-01  3.000000E-01 -4.911591E-03  6.385069E-02 -8.349705E-02
      92     1  1.200000E-02 -5.000000E-02 -4.500000E-01  3.500000E-01 -4.911591E-03  7.367387E-02 -8.349705E-02
      93     1  6.000000E-03 -5.000000E-02  1.000000E-01  0.000000E+00  1.473477E-02 -1.473477E-02  4.911591E-03
      94     1  6.000000E-03 -1.000000E-01  1.500000E-01  0.000000E+00  2.455796E-02 -2.455796E-02  4.911591E-03
      95     1  6.000000E-03 -1.500000E-01  2.000000E-01  0.000000E+00  3.438114E-02 -3.438114E-02  4.911591E-03
      96     1  6.000000E-03 -2.000000E-01  2.500000E-01  0.000000E+00  4.420432E-02 -4.420432E-02  4.911591E-03
      97     1  6.000000E-03 -2.500000E-01  3.000000E-01  0.000000E+00  5.402750E-02 -5.402750E-02  4.911591E-03
      98     1  6.000000E-03 -3.000000E-01  3.500000E-01  0.000000E+00  6.385069E-02 -6.385069E-02  4.911591E-03
      99     1  6.000000E-03 -3.500000E-01  4.000000E-01  0.000000E+00  7.367387E-02 -7.367387E-02  4.911591E-03
     100     1  6.000000E-03 -4.000000E-01  4.500000E-01  0.000000E+00  8.349705E-02 -8.349705E-02  4.911591E-03
 
 invars2 : Printing the k point grid from kptrlatt, shifted with shiftk and qptn, in the full Brillouin zone.
   Maximum 100 of them. No use of symmetries
 nkpt_fullbz=    4000
     ikpt      --------------- reduced coordinates ---------------  --------- cartesian coordinates ---------
       1      -5.0000000000E-02 -1.0000000000E-01  0.0000000000E+00 -4.911591E-03  4.911591E-03 -1.473477E-02
       2      -1.0000000000E-01 -5.0000000000E-02  0.0000000000E+00  4.911591E-03 -4.911591E-03 -1.473477E-02
       3      -5.0000000000E-02 -5.0000000000E-02  5.0000000000E-02  4.911591E-03  4.911591E-03 -1.473477E-02
       4      -5.0000000000E-02 -2.0000000000E-01  0.0000000000E+00 -1.473477E-02  1.473477E-02 -2.455796E-02
       5      -1.0000000000E-01 -1.5000000000E-01  0.0000000000E+00 -4.911591E-03  4.911591E-03 -2.455796E-02
       6      -5.0000000000E-02 -1.5000000000E-01  5.0000000000E-02 -4.911591E-03  1.473477E-02 -2.455796E-02
       7      -1.5000000000E-01 -1.0000000000E-01  0.0000000000E+00  4.911591E-03 -4.911591E-03 -2.455796E-02
       8      -1.0000000000E-01 -1.0000000000E-01  5.0000000000E-02  4.911591E-03  4.911591E-03 -2.455796E-02
       9      -5.0000000000E-02 -1.0000000000E-01  1.0000000000E-01  4.911591E-03  1.473477E-02 -2.455796E-02
      10      -2.0000000000E-01 -5.0000000000E-02  0.0000000000E+00  1.473477E-02 -1.473477E-02 -2.455796E-02
      11      -1.5000000000E-01 -5.0000000000E-02  5.0000000000E-02  1.473477E-02 -4.911591E-03 -2.455796E-02
      12      -1.0000000000E-01 -5.0000000000E-02  1.0000000000E-01  1.473477E-02  4.911591E-03 -2.455796E-02
      13      -5.0000000000E-02 -5.0000000000E-02  1.5000000000E-01  1.473477E-02  1.473477E-02 -2.455796E-02
      14      -5.0000000000E-02 -3.0000000000E-01  0.0000000000E+00 -2.455796E-02  2.455796E-02 -3.438114E-02
      15      -1.0000000000E-01 -2.5000000000E-01  0.0000000000E+00 -1.473477E-02  1.473477E-02 -3.438114E-02
      16      -5.0000000000E-02 -2.5000000000E-01  5.0000000000E-02 -1.473477E-02  2.455796E-02 -3.438114E-02
      17      -1.5000000000E-01 -2.0000000000E-01  0.0000000000E+00 -4.911591E-03  4.911591E-03 -3.438114E-02
      18      -1.0000000000E-01 -2.0000000000E-01  5.0000000000E-02 -4.911591E-03  1.473477E-02 -3.438114E-02
      19      -5.0000000000E-02 -2.0000000000E-01  1.0000000000E-01 -4.911591E-03  2.455796E-02 -3.438114E-02
      20      -2.0000000000E-01 -1.5000000000E-01  0.0000000000E+00  4.911591E-03 -4.911591E-03 -3.438114E-02
      21      -1.5000000000E-01 -1.5000000000E-01  5.0000000000E-02  4.911591E-03  4.911591E-03 -3.438114E-02
      22      -1.0000000000E-01 -1.5000000000E-01  1.0000000000E-01  4.911591E-03  1.473477E-02 -3.438114E-02
      23      -5.0000000000E-02 -1.5000000000E-01  1.5000000000E-01  4.911591E-03  2.455796E-02 -3.438114E-02
      24      -2.5000000000E-01 -1.0000000000E-01  0.0000000000E+00  1.473477E-02 -1.473477E-02 -3.438114E-02
      25      -2.0000000000E-01 -1.0000000000E-01  5.0000000000E-02  1.473477E-02 -4.911591E-03 -3.438114E-02
      26      -1.5000000000E-01 -1.0000000000E-01  1.0000000000E-01  1.473477E-02  4.911591E-03 -3.438114E-02
      27      -1.0000000000E-01 -1.0000000000E-01  1.5000000000E-01  1.473477E-02  1.473477E-02 -3.438114E-02
      28      -5.0000000000E-02 -1.0000000000E-01  2.0000000000E-01  1.473477E-02  2.455796E-02 -3.438114E-02
      29      -3.0000000000E-01 -5.0000000000E-02  0.0000000000E+00  2.455796E-02 -2.455796E-02 -3.438114E-02
      30      -2.5000000000E-01 -5.0000000000E-02  5.0000000000E-02  2.455796E-02 -1.473477E-02 -3.438114E-02
      31      -2.0000000000E-01 -5.0000000000E-02  1.0000000000E-01  2.455796E-02 -4.911591E-03 -3.438114E-02
      32      -1.5000000000E-01 -5.0000000000E-02  1.5000000000E-01  2.455796E-02  4.911591E-03 -3.438114E-02
      33      -1.0000000000E-01 -5.0000000000E-02  2.0000000000E-01  2.455796E-02  1.473477E-02 -3.438114E-02
      34      -5.0000000000E-02 -5.0000000000E-02  2.5000000000E-01  2.455796E-02  2.455796E-02 -3.438114E-02
      35      -5.0000000000E-02 -4.0000000000E-01  0.0000000000E+00 -3.438114E-02  3.438114E-02 -4.420432E-02
      36      -1.0000000000E-01 -3.5000000000E-01  0.0000000000E+00 -2.455796E-02  2.455796E-02 -4.420432E-02
      37      -5.0000000000E-02 -3.5000000000E-01  5.0000000000E-02 -2.455796E-02  3.438114E-02 -4.420432E-02
      38      -1.5000000000E-01 -3.0000000000E-01  0.0000000000E+00 -1.473477E-02  1.473477E-02 -4.420432E-02
      39      -1.0000000000E-01 -3.0000000000E-01  5.0000000000E-02 -1.473477E-02  2.455796E-02 -4.420432E-02
      40      -5.0000000000E-02 -3.0000000000E-01  1.0000000000E-01 -1.473477E-02  3.438114E-02 -4.420432E-02
      41      -2.0000000000E-01 -2.5000000000E-01  0.0000000000E+00 -4.911591E-03  4.911591E-03 -4.420432E-02
      42      -1.5000000000E-01 -2.5000000000E-01  5.0000000000E-02 -4.911591E-03  1.473477E-02 -4.420432E-02
      43      -1.0000000000E-01 -2.5000000000E-01  1.0000000000E-01 -4.911591E-03  2.455796E-02 -4.420432E-02
      44      -5.0000000000E-02 -2.5000000000E-01  1.5000000000E-01 -4.911591E-03  3.438114E-02 -4.420432E-02
      45      -2.5000000000E-01 -2.0000000000E-01  0.0000000000E+00  4.911591E-03 -4.911591E-03 -4.420432E-02
      46      -2.0000000000E-01 -2.0000000000E-01  5.0000000000E-02  4.911591E-03  4.911591E-03 -4.420432E-02
      47      -1.5000000000E-01 -2.0000000000E-01  1.0000000000E-01  4.911591E-03  1.473477E-02 -4.420432E-02
      48      -1.0000000000E-01 -2.0000000000E-01  1.5000000000E-01  4.911591E-03  2.455796E-02 -4.420432E-02
      49      -5.0000000000E-02 -2.0000000000E-01  2.0000000000E-01  4.911591E-03  3.438114E-02 -4.420432E-02
      50      -3.0000000000E-01 -1.5000000000E-01  0.0000000000E+00  1.473477E-02 -1.473477E-02 -4.420432E-02
      51      -2.5000000000E-01 -1.5000000000E-01  5.0000000000E-02  1.473477E-02 -4.911591E-03 -4.420432E-02
      52      -2.0000000000E-01 -1.5000000000E-01  1.0000000000E-01  1.473477E-02  4.911591E-03 -4.420432E-02
      53      -1.5000000000E-01 -1.5000000000E-01  1.5000000000E-01  1.473477E-02  1.473477E-02 -4.420432E-02
      54      -1.0000000000E-01 -1.5000000000E-01  2.0000000000E-01  1.473477E-02  2.455796E-02 -4.420432E-02
      55      -5.0000000000E-02 -1.5000000000E-01  2.5000000000E-01  1.473477E-02  3.438114E-02 -4.420432E-02
      56      -3.5000000000E-01 -1.0000000000E-01  0.0000000000E+00  2.455796E-02 -2.455796E-02 -4.420432E-02
      57      -3.0000000000E-01 -1.0000000000E-01  5.0000000000E-02  2.455796E-02 -1.473477E-02 -4.420432E-02
      58      -2.5000000000E-01 -1.0000000000E-01  1.0000000000E-01  2.455796E-02 -4.911591E-03 -4.420432E-02
      59      -2.0000000000E-01 -1.0000000000E-01  1.5000000000E-01  2.455796E-02  4.911591E-03 -4.420432E-02
      60      -1.5000000000E-01 -1.0000000000E-01  2.0000000000E-01  2.455796E-02  1.473477E-02 -4.420432E-02
      61      -1.0000000000E-01 -1.0000000000E-01  2.5000000000E-01  2.455796E-02  2.455796E-02 -4.420432E-02
      62      -5.0000000000E-02 -1.0000000000E-01  3.0000000000E-01  2.455796E-02  3.438114E-02 -4.420432E-02
      63      -4.0000000000E-01 -5.0000000000E-02  0.0000000000E+00  3.438114E-02 -3.438114E-02 -4.420432E-02
      64      -3.5000000000E-01 -5.0000000000E-02  5.0000000000E-02  3.438114E-02 -2.455796E-02 -4.420432E-02
      65      -3.0000000000E-01 -5.0000000000E-02  1.0000000000E-01  3.438114E-02 -1.473477E-02 -4.420432E-02
      66      -2.5000000000E-01 -5.0000000000E-02  1.5000000000E-01  3.438114E-02 -4.911591E-03 -4.420432E-02
      67      -2.0000000000E-01 -5.0000000000E-02  2.0000000000E-01  3.438114E-02  4.911591E-03 -4.420432E-02
      68      -1.5000000000E-01 -5.0000000000E-02  2.5000000000E-01  3.438114E-02  1.473477E-02 -4.420432E-02
      69      -1.0000000000E-01 -5.0000000000E-02  3.0000000000E-01  3.438114E-02  2.455796E-02 -4.420432E-02
      70      -5.0000000000E-02 -5.0000000000E-02  3.5000000000E-01  3.438114E-02  3.438114E-02 -4.420432E-02
      71      -5.0000000000E-02  5.0000000000E-01  0.0000000000E+00  5.402750E-02 -5.402750E-02  4.420432E-02
      72      -1.0000000000E-01 -4.5000000000E-01  0.0000000000E+00 -3.438114E-02  3.438114E-02 -5.402750E-02
      73      -5.0000000000E-02 -4.5000000000E-01  5.0000000000E-02 -3.438114E-02  4.420432E-02 -5.402750E-02
      74      -1.5000000000E-01 -4.0000000000E-01  0.0000000000E+00 -2.455796E-02  2.455796E-02 -5.402750E-02
      75      -1.0000000000E-01 -4.0000000000E-01  5.0000000000E-02 -2.455796E-02  3.438114E-02 -5.402750E-02
      76      -5.0000000000E-02 -4.0000000000E-01  1.0000000000E-01 -2.455796E-02  4.420432E-02 -5.402750E-02
      77      -2.0000000000E-01 -3.5000000000E-01  0.0000000000E+00 -1.473477E-02  1.473477E-02 -5.402750E-02
      78      -1.5000000000E-01 -3.5000000000E-01  5.0000000000E-02 -1.473477E-02  2.455796E-02 -5.402750E-02
      79      -1.0000000000E-01 -3.5000000000E-01  1.0000000000E-01 -1.473477E-02  3.438114E-02 -5.402750E-02
      80      -5.0000000000E-02 -3.5000000000E-01  1.5000000000E-01 -1.473477E-02  4.420432E-02 -5.402750E-02
      81      -2.5000000000E-01 -3.0000000000E-01  0.0000000000E+00 -4.911591E-03  4.911591E-03 -5.402750E-02
      82      -2.0000000000E-01 -3.0000000000E-01  5.0000000000E-02 -4.911591E-03  1.473477E-02 -5.402750E-02
      83      -1.5000000000E-01 -3.0000000000E-01  1.0000000000E-01 -4.911591E-03  2.455796E-02 -5.402750E-02
      84      -1.0000000000E-01 -3.0000000000E-01  1.5000000000E-01 -4.911591E-03  3.438114E-02 -5.402750E-02
      85      -5.0000000000E-02 -3.0000000000E-01  2.0000000000E-01 -4.911591E-03  4.420432E-02 -5.402750E-02
      86      -3.0000000000E-01 -2.5000000000E-01  0.0000000000E+00  4.911591E-03 -4.911591E-03 -5.402750E-02
      87      -2.5000000000E-01 -2.5000000000E-01  5.0000000000E-02  4.911591E-03  4.911591E-03 -5.402750E-02
      88      -2.0000000000E-01 -2.5000000000E-01  1.0000000000E-01  4.911591E-03  1.473477E-02 -5.402750E-02
      89      -1.5000000000E-01 -2.5000000000E-01  1.5000000000E-01  4.911591E-03  2.455796E-02 -5.402750E-02
      90      -1.0000000000E-01 -2.5000000000E-01  2.0000000000E-01  4.911591E-03  3.438114E-02 -5.402750E-02
      91      -5.0000000000E-02 -2.5000000000E-01  2.5000000000E-01  4.911591E-03  4.420432E-02 -5.402750E-02
      92      -3.5000000000E-01 -2.0000000000E-01  0.0000000000E+00  1.473477E-02 -1.473477E-02 -5.402750E-02
      93      -3.0000000000E-01 -2.0000000000E-01  5.0000000000E-02  1.473477E-02 -4.911591E-03 -5.402750E-02
      94      -2.5000000000E-01 -2.0000000000E-01  1.0000000000E-01  1.473477E-02  4.911591E-03 -5.402750E-02
      95      -2.0000000000E-01 -2.0000000000E-01  1.5000000000E-01  1.473477E-02  1.473477E-02 -5.402750E-02
      96      -1.5000000000E-01 -2.0000000000E-01  2.0000000000E-01  1.473477E-02  2.455796E-02 -5.402750E-02
      97      -1.0000000000E-01 -2.0000000000E-01  2.5000000000E-01  1.473477E-02  3.438114E-02 -5.402750E-02
      98      -5.0000000000E-02 -2.0000000000E-01  3.0000000000E-01  1.473477E-02  4.420432E-02 -5.402750E-02
      99      -4.0000000000E-01 -1.5000000000E-01  0.0000000000E+00  2.455796E-02 -2.455796E-02 -5.402750E-02
     100      -3.5000000000E-01 -1.5000000000E-01  5.0000000000E-02  2.455796E-02 -1.473477E-02 -5.402750E-02
 

  chkneu : enter, dtset%nelect=   8.0000000000000000     
  occopt,dtset%nsppol,dtset%nspden=           1           1           1
  maxocc,nocc,occlast=   2.0000000000000000                4   2.0000000000000000     
 chkneu : initialized the occupation numbers for occopt=    1, spin-unpolarized or antiferromagnetic case :
  2.00  2.00  2.00  2.00  0.00
 invars2: take the default value of fband=  1.25000000E-01
       Simple Lattice Grid
 
 invars2 : Printing the k point grid (values of kptns - max 100 of them)
 nkpt=     110
     ikpt istwfk    wtk       --------- reduced coordinates ---------  --------- cartesian coordinates ---------
       1     1  6.000000E-03 -5.000000E-02 -1.000000E-01  0.000000E+00 -4.911591E-03  4.911591E-03 -1.473477E-02
       2     1  6.000000E-03 -5.000000E-02 -2.000000E-01  0.000000E+00 -1.473477E-02  1.473477E-02 -2.455796E-02
       3     1  6.000000E-03 -1.000000E-01 -1.500000E-01  0.000000E+00 -4.911591E-03  4.911591E-03 -2.455796E-02
       4     1  1.200000E-02 -5.000000E-02 -1.500000E-01  5.000000E-02 -4.911591E-03  1.473477E-02 -2.455796E-02
       5     1  6.000000E-03 -5.000000E-02 -3.000000E-01  0.000000E+00 -2.455796E-02  2.455796E-02 -3.438114E-02
       6     1  6.000000E-03 -1.000000E-01 -2.500000E-01  0.000000E+00 -1.473477E-02  1.473477E-02 -3.438114E-02
       7     1  1.200000E-02 -5.000000E-02 -2.500000E-01  5.000000E-02 -1.473477E-02  2.455796E-02 -3.438114E-02
       8     1  6.000000E-03 -1.500000E-01 -2.000000E-01  0.000000E+00 -4.911591E-03  4.911591E-03 -3.438114E-02
       9     1  1.200000E-02 -1.000000E-01 -2.000000E-01  5.000000E-02 -4.911591E-03  1.473477E-02 -3.438114E-02
      10     1  1.200000E-02 -5.000000E-02 -2.000000E-01  1.000000E-01 -4.911591E-03  2.455796E-02 -3.438114E-02
      11     1  6.000000E-03 -5.000000E-02 -4.000000E-01  0.000000E+00 -3.438114E-02  3.438114E-02 -4.420432E-02
      12     1  6.000000E-03 -1.000000E-01 -3.500000E-01  0.000000E+00 -2.455796E-02  2.455796E-02 -4.420432E-02
      13     1  1.200000E-02 -5.000000E-02 -3.500000E-01  5.000000E-02 -2.455796E-02  3.438114E-02 -4.420432E-02
      14     1  6.000000E-03 -1.500000E-01 -3.000000E-01  0.000000E+00 -1.473477E-02  1.473477E-02 -4.420432E-02
      15     1  1.200000E-02 -1.000000E-01 -3.000000E-01  5.000000E-02 -1.473477E-02  2.455796E-02 -4.420432E-02
      16     1  1.200000E-02 -5.000000E-02 -3.000000E-01  1.000000E-01 -1.473477E-02  3.438114E-02 -4.420432E-02
      17     1  6.000000E-03 -2.000000E-01 -2.500000E-01  0.000000E+00 -4.911591E-03  4.911591E-03 -4.420432E-02
      18     1  1.200000E-02 -1.500000E-01 -2.500000E-01  5.000000E-02 -4.911591E-03  1.473477E-02 -4.420432E-02
      19     1  1.200000E-02 -1.000000E-01 -2.500000E-01  1.000000E-01 -4.911591E-03  2.455796E-02 -4.420432E-02
      20     1  1.200000E-02 -5.000000E-02 -2.500000E-01  1.500000E-01 -4.911591E-03  3.438114E-02 -4.420432E-02
      21     1  6.000000E-03 -5.000000E-02  5.000000E-01  0.000000E+00  5.402750E-02 -5.402750E-02  4.420432E-02
      22     1  6.000000E-03 -1.000000E-01 -4.500000E-01  0.000000E+00 -3.438114E-02  3.438114E-02 -5.402750E-02
      23     1  1.200000E-02 -5.000000E-02 -4.500000E-01  5.000000E-02 -3.438114E-02  4.420432E-02 -5.402750E-02
      24     1  6.000000E-03 -1.500000E-01 -4.000000E-01  0.000000E+00 -2.455796E-02  2.455796E-02 -5.402750E-02
      25     1  1.200000E-02 -1.000000E-01 -4.000000E-01  5.000000E-02 -2.455796E-02  3.438114E-02 -5.402750E-02
      26     1  1.200000E-02 -5.000000E-02 -4.000000E-01  1.000000E-01 -2.455796E-02  4.420432E-02 -5.402750E-02
      27     1  6.000000E-03 -2.000000E-01 -3.500000E-01  0.000000E+00 -1.473477E-02  1.473477E-02 -5.402750E-02
      28     1  1.200000E-02 -1.500000E-01 -3.500000E-01  5.000000E-02 -1.473477E-02  2.455796E-02 -5.402750E-02
      29     1  1.200000E-02 -1.000000E-01 -3.500000E-01  1.000000E-01 -1.473477E-02  3.438114E-02 -5.402750E-02
      30     1  1.200000E-02 -5.000000E-02 -3.500000E-01  1.500000E-01 -1.473477E-02  4.420432E-02 -5.402750E-02
      31     1  6.000000E-03 -2.500000E-01 -3.000000E-01  0.000000E+00 -4.911591E-03  4.911591E-03 -5.402750E-02
      32     1  1.200000E-02 -2.000000E-01 -3.000000E-01  5.000000E-02 -4.911591E-03  1.473477E-02 -5.402750E-02
      33     1  1.200000E-02 -1.500000E-01 -3.000000E-01  1.000000E-01 -4.911591E-03  2.455796E-02 -5.402750E-02
      34     1  1.200000E-02 -1.000000E-01 -3.000000E-01  1.500000E-01 -4.911591E-03  3.438114E-02 -5.402750E-02
      35     1  1.200000E-02 -5.000000E-02 -3.000000E-01  2.000000E-01 -4.911591E-03  4.420432E-02 -5.402750E-02
      36     1  6.000000E-03 -5.000000E-02  4.000000E-01  0.000000E+00  4.420432E-02 -4.420432E-02  3.438114E-02
      37     1  6.000000E-03 -1.000000E-01  4.500000E-01  0.000000E+00  5.402750E-02 -5.402750E-02  3.438114E-02
      38     1  6.000000E-03 -1.500000E-01  5.000000E-01  0.000000E+00  6.385069E-02 -6.385069E-02  3.438114E-02
      39     1  1.200000E-02 -1.000000E-01  5.000000E-01  5.000000E-02  6.385069E-02 -5.402750E-02  3.438114E-02
      40     1  6.000000E-03 -2.000000E-01 -4.500000E-01  0.000000E+00 -2.455796E-02  2.455796E-02 -6.385069E-02
      41     1  1.200000E-02 -1.500000E-01 -4.500000E-01  5.000000E-02 -2.455796E-02  3.438114E-02 -6.385069E-02
      42     1  1.200000E-02 -1.000000E-01 -4.500000E-01  1.000000E-01 -2.455796E-02  4.420432E-02 -6.385069E-02
      43     1  1.200000E-02 -5.000000E-02 -4.500000E-01  1.500000E-01 -2.455796E-02  5.402750E-02 -6.385069E-02
      44     1  6.000000E-03 -2.500000E-01 -4.000000E-01  0.000000E+00 -1.473477E-02  1.473477E-02 -6.385069E-02
      45     1  1.200000E-02 -2.000000E-01 -4.000000E-01  5.000000E-02 -1.473477E-02  2.455796E-02 -6.385069E-02
      46     1  1.200000E-02 -1.500000E-01 -4.000000E-01  1.000000E-01 -1.473477E-02  3.438114E-02 -6.385069E-02
      47     1  1.200000E-02 -1.000000E-01 -4.000000E-01  1.500000E-01 -1.473477E-02  4.420432E-02 -6.385069E-02
      48     1  1.200000E-02 -5.000000E-02 -4.000000E-01  2.000000E-01 -1.473477E-02  5.402750E-02 -6.385069E-02
      49     1  6.000000E-03 -3.000000E-01 -3.500000E-01  0.000000E+00 -4.911591E-03  4.911591E-03 -6.385069E-02
      50     1  1.200000E-02 -2.500000E-01 -3.500000E-01  5.000000E-02 -4.911591E-03  1.473477E-02 -6.385069E-02
      51     1  1.200000E-02 -2.000000E-01 -3.500000E-01  1.000000E-01 -4.911591E-03  2.455796E-02 -6.385069E-02
      52     1  1.200000E-02 -1.500000E-01 -3.500000E-01  1.500000E-01 -4.911591E-03  3.438114E-02 -6.385069E-02
      53     1  1.200000E-02 -1.000000E-01 -3.500000E-01  2.000000E-01 -4.911591E-03  4.420432E-02 -6.385069E-02
      54     1  1.200000E-02 -5.000000E-02 -3.500000E-01  2.500000E-01 -4.911591E-03  5.402750E-02 -6.385069E-02
      55     1  6.000000E-03 -5.000000E-02  3.000000E-01  0.000000E+00  3.438114E-02 -3.438114E-02  2.455796E-02
      56     1  6.000000E-03 -1.000000E-01  3.500000E-01  0.000000E+00  4.420432E-02 -4.420432E-02  2.455796E-02
      57     1  6.000000E-03 -1.500000E-01  4.000000E-01  0.000000E+00  5.402750E-02 -5.402750E-02  2.455796E-02
      58     1  6.000000E-03 -2.000000E-01  4.500000E-01  0.000000E+00  6.385069E-02 -6.385069E-02  2.455796E-02
      59     1  6.000000E-03 -2.500000E-01  5.000000E-01  0.000000E+00  7.367387E-02 -7.367387E-02  2.455796E-02
      60     1  1.200000E-02 -2.000000E-01  5.000000E-01  5.000000E-02  7.367387E-02 -6.385069E-02  2.455796E-02
      61     1  1.200000E-02 -1.500000E-01  5.000000E-01  1.000000E-01  7.367387E-02 -5.402750E-02  2.455796E-02
      62     1  6.000000E-03 -3.000000E-01 -4.500000E-01  0.000000E+00 -1.473477E-02  1.473477E-02 -7.367387E-02
      63     1  1.200000E-02 -2.500000E-01 -4.500000E-01  5.000000E-02 -1.473477E-02  2.455796E-02 -7.367387E-02
      64     1  1.200000E-02 -2.000000E-01 -4.500000E-01  1.000000E-01 -1.473477E-02  3.438114E-02 -7.367387E-02
      65     1  1.200000E-02 -1.500000E-01 -4.500000E-01  1.500000E-01 -1.473477E-02  4.420432E-02 -7.367387E-02
      66     1  1.200000E-02 -1.000000E-01 -4.500000E-01  2.000000E-01 -1.473477E-02  5.402750E-02 -7.367387E-02
      67     1  1.200000E-02 -5.000000E-02 -4.500000E-01  2.500000E-01 -1.473477E-02  6.385069E-02 -7.367387E-02
      68     1  6.000000E-03 -3.500000E-01 -4.000000E-01  0.000000E+00 -4.911591E-03  4.911591E-03 -7.367387E-02
      69     1  1.200000E-02 -3.000000E-01 -4.000000E-01  5.000000E-02 -4.911591E-03  1.473477E-02 -7.367387E-02
      70     1  1.200000E-02 -2.500000E-01 -4.000000E-01  1.000000E-01 -4.911591E-03  2.455796E-02 -7.367387E-02
      71     1  1.200000E-02 -2.000000E-01 -4.000000E-01  1.500000E-01 -4.911591E-03  3.438114E-02 -7.367387E-02
      72     1  1.200000E-02 -1.500000E-01 -4.000000E-01  2.000000E-01 -4.911591E-03  4.420432E-02 -7.367387E-02
      73     1  1.200000E-02 -1.000000E-01 -4.000000E-01  2.500000E-01 -4.911591E-03  5.402750E-02 -7.367387E-02
      74     1  1.200000E-02 -5.000000E-02 -4.000000E-01  3.000000E-01 -4.911591E-03  6.385069E-02 -7.367387E-02
      75     1  6.000000E-03 -5.000000E-02  2.000000E-01  0.000000E+00  2.455796E-02 -2.455796E-02  1.473477E-02
      76     1  6.000000E-03 -1.000000E-01  2.500000E-01  0.000000E+00  3.438114E-02 -3.438114E-02  1.473477E-02
      77     1  6.000000E-03 -1.500000E-01  3.000000E-01  0.000000E+00  4.420432E-02 -4.420432E-02  1.473477E-02
      78     1  6.000000E-03 -2.000000E-01  3.500000E-01  0.000000E+00  5.402750E-02 -5.402750E-02  1.473477E-02
      79     1  6.000000E-03 -2.500000E-01  4.000000E-01  0.000000E+00  6.385069E-02 -6.385069E-02  1.473477E-02
      80     1  6.000000E-03 -3.000000E-01  4.500000E-01  0.000000E+00  7.367387E-02 -7.367387E-02  1.473477E-02
      81     1  6.000000E-03 -3.500000E-01  5.000000E-01  0.000000E+00  8.349705E-02 -8.349705E-02  1.473477E-02
      82     1  1.200000E-02 -3.000000E-01  5.000000E-01  5.000000E-02  8.349705E-02 -7.367387E-02  1.473477E-02
      83     1  1.200000E-02 -2.500000E-01  5.000000E-01  1.000000E-01  8.349705E-02 -6.385069E-02  1.473477E-02
      84     1  1.200000E-02 -2.000000E-01  5.000000E-01  1.500000E-01  8.349705E-02 -5.402750E-02  1.473477E-02
      85     1  6.000000E-03 -4.000000E-01 -4.500000E-01  0.000000E+00 -4.911591E-03  4.911591E-03 -8.349705E-02
      86     1  1.200000E-02 -3.500000E-01 -4.500000E-01  5.000000E-02 -4.911591E-03  1.473477E-02 -8.349705E-02
      87     1  1.200000E-02 -3.000000E-01 -4.500000E-01  1.000000E-01 -4.911591E-03  2.455796E-02 -8.349705E-02
      88     1  1.200000E-02 -2.500000E-01 -4.500000E-01  1.500000E-01 -4.911591E-03  3.438114E-02 -8.349705E-02
      89     1  1.200000E-02 -2.000000E-01 -4.500000E-01  2.000000E-01 -4.911591E-03  4.420432E-02 -8.349705E-02
      90     1  1.200000E-02 -1.500000E-01 -4.500000E-01  2.500000E-01 -4.911591E-03  5.402750E-02 -8.349705E-02
      91     1  1.200000E-02 -1.000000E-01 -4.500000E-01  3.000000E-01 -4.911591E-03  6.385069E-02 -8.349705E-02
      92     1  1.200000E-02 -5.000000E-02 -4.500000E-01  3.500000E-01 -4.911591E-03  7.367387E-02 -8.349705E-02
      93     1  6.000000E-03 -5.000000E-02  1.000000E-01  0.000000E+00  1.473477E-02 -1.473477E-02  4.911591E-03
      94     1  6.000000E-03 -1.000000E-01  1.500000E-01  0.000000E+00  2.455796E-02 -2.455796E-02  4.911591E-03
      95     1  6.000000E-03 -1.500000E-01  2.000000E-01  0.000000E+00  3.438114E-02 -3.438114E-02  4.911591E-03
      96     1  6.000000E-03 -2.000000E-01  2.500000E-01  0.000000E+00  4.420432E-02 -4.420432E-02  4.911591E-03
      97     1  6.000000E-03 -2.500000E-01  3.000000E-01  0.000000E+00  5.402750E-02 -5.402750E-02  4.911591E-03
      98     1  6.000000E-03 -3.000000E-01  3.500000E-01  0.000000E+00  6.385069E-02 -6.385069E-02  4.911591E-03
      99     1  6.000000E-03 -3.500000E-01  4.000000E-01  0.000000E+00  7.367387E-02 -7.367387E-02  4.911591E-03
     100     1  6.000000E-03 -4.000000E-01  4.500000E-01  0.000000E+00  8.349705E-02 -8.349705E-02  4.911591E-03
 
 invars2 : Printing the k point grid from kptrlatt, shifted with shiftk and qptn, in the full Brillouin zone.
   Maximum 100 of them. No use of symmetries
 nkpt_fullbz=    4000
     ikpt      --------------- reduced coordinates ---------------  --------- cartesian coordinates ---------
       1      -5.0000000000E-02 -1.0000000000E-01  0.0000000000E+00 -4.911591E-03  4.911591E-03 -1.473477E-02
       2      -1.0000000000E-01 -5.0000000000E-02  0.0000000000E+00  4.911591E-03 -4.911591E-03 -1.473477E-02
       3      -5.0000000000E-02 -5.0000000000E-02  5.0000000000E-02  4.911591E-03  4.911591E-03 -1.473477E-02
       4      -5.0000000000E-02 -2.0000000000E-01  0.0000000000E+00 -1.473477E-02  1.473477E-02 -2.455796E-02
       5      -1.0000000000E-01 -1.5000000000E-01  0.0000000000E+00 -4.911591E-03  4.911591E-03 -2.455796E-02
       6      -5.0000000000E-02 -1.5000000000E-01  5.0000000000E-02 -4.911591E-03  1.473477E-02 -2.455796E-02
       7      -1.5000000000E-01 -1.0000000000E-01  0.0000000000E+00  4.911591E-03 -4.911591E-03 -2.455796E-02
       8      -1.0000000000E-01 -1.0000000000E-01  5.0000000000E-02  4.911591E-03  4.911591E-03 -2.455796E-02
       9      -5.0000000000E-02 -1.0000000000E-01  1.0000000000E-01  4.911591E-03  1.473477E-02 -2.455796E-02
      10      -2.0000000000E-01 -5.0000000000E-02  0.0000000000E+00  1.473477E-02 -1.473477E-02 -2.455796E-02
      11      -1.5000000000E-01 -5.0000000000E-02  5.0000000000E-02  1.473477E-02 -4.911591E-03 -2.455796E-02
      12      -1.0000000000E-01 -5.0000000000E-02  1.0000000000E-01  1.473477E-02  4.911591E-03 -2.455796E-02
      13      -5.0000000000E-02 -5.0000000000E-02  1.5000000000E-01  1.473477E-02  1.473477E-02 -2.455796E-02
      14      -5.0000000000E-02 -3.0000000000E-01  0.0000000000E+00 -2.455796E-02  2.455796E-02 -3.438114E-02
      15      -1.0000000000E-01 -2.5000000000E-01  0.0000000000E+00 -1.473477E-02  1.473477E-02 -3.438114E-02
      16      -5.0000000000E-02 -2.5000000000E-01  5.0000000000E-02 -1.473477E-02  2.455796E-02 -3.438114E-02
      17      -1.5000000000E-01 -2.0000000000E-01  0.0000000000E+00 -4.911591E-03  4.911591E-03 -3.438114E-02
      18      -1.0000000000E-01 -2.0000000000E-01  5.0000000000E-02 -4.911591E-03  1.473477E-02 -3.438114E-02
      19      -5.0000000000E-02 -2.0000000000E-01  1.0000000000E-01 -4.911591E-03  2.455796E-02 -3.438114E-02
      20      -2.0000000000E-01 -1.5000000000E-01  0.0000000000E+00  4.911591E-03 -4.911591E-03 -3.438114E-02
      21      -1.5000000000E-01 -1.5000000000E-01  5.0000000000E-02  4.911591E-03  4.911591E-03 -3.438114E-02
      22      -1.0000000000E-01 -1.5000000000E-01  1.0000000000E-01  4.911591E-03  1.473477E-02 -3.438114E-02
      23      -5.0000000000E-02 -1.5000000000E-01  1.5000000000E-01  4.911591E-03  2.455796E-02 -3.438114E-02
      24      -2.5000000000E-01 -1.0000000000E-01  0.0000000000E+00  1.473477E-02 -1.473477E-02 -3.438114E-02
      25      -2.0000000000E-01 -1.0000000000E-01  5.0000000000E-02  1.473477E-02 -4.911591E-03 -3.438114E-02
      26      -1.5000000000E-01 -1.0000000000E-01  1.0000000000E-01  1.473477E-02  4.911591E-03 -3.438114E-02
      27      -1.0000000000E-01 -1.0000000000E-01  1.5000000000E-01  1.473477E-02  1.473477E-02 -3.438114E-02
      28      -5.0000000000E-02 -1.0000000000E-01  2.0000000000E-01  1.473477E-02  2.455796E-02 -3.438114E-02
      29      -3.0000000000E-01 -5.0000000000E-02  0.0000000000E+00  2.455796E-02 -2.455796E-02 -3.438114E-02
      30      -2.5000000000E-01 -5.0000000000E-02  5.0000000000E-02  2.455796E-02 -1.473477E-02 -3.438114E-02
      31      -2.0000000000E-01 -5.0000000000E-02  1.0000000000E-01  2.455796E-02 -4.911591E-03 -3.438114E-02
      32      -1.5000000000E-01 -5.0000000000E-02  1.5000000000E-01  2.455796E-02  4.911591E-03 -3.438114E-02
      33      -1.0000000000E-01 -5.0000000000E-02  2.0000000000E-01  2.455796E-02  1.473477E-02 -3.438114E-02
      34      -5.0000000000E-02 -5.0000000000E-02  2.5000000000E-01  2.455796E-02  2.455796E-02 -3.438114E-02
      35      -5.0000000000E-02 -4.0000000000E-01  0.0000000000E+00 -3.438114E-02  3.438114E-02 -4.420432E-02
      36      -1.0000000000E-01 -3.5000000000E-01  0.0000000000E+00 -2.455796E-02  2.455796E-02 -4.420432E-02
      37      -5.0000000000E-02 -3.5000000000E-01  5.0000000000E-02 -2.455796E-02  3.438114E-02 -4.420432E-02
      38      -1.5000000000E-01 -3.0000000000E-01  0.0000000000E+00 -1.473477E-02  1.473477E-02 -4.420432E-02
      39      -1.0000000000E-01 -3.0000000000E-01  5.0000000000E-02 -1.473477E-02  2.455796E-02 -4.420432E-02
      40      -5.0000000000E-02 -3.0000000000E-01  1.0000000000E-01 -1.473477E-02  3.438114E-02 -4.420432E-02
      41      -2.0000000000E-01 -2.5000000000E-01  0.0000000000E+00 -4.911591E-03  4.911591E-03 -4.420432E-02
      42      -1.5000000000E-01 -2.5000000000E-01  5.0000000000E-02 -4.911591E-03  1.473477E-02 -4.420432E-02
      43      -1.0000000000E-01 -2.5000000000E-01  1.0000000000E-01 -4.911591E-03  2.455796E-02 -4.420432E-02
      44      -5.0000000000E-02 -2.5000000000E-01  1.5000000000E-01 -4.911591E-03  3.438114E-02 -4.420432E-02
      45      -2.5000000000E-01 -2.0000000000E-01  0.0000000000E+00  4.911591E-03 -4.911591E-03 -4.420432E-02
      46      -2.0000000000E-01 -2.0000000000E-01  5.0000000000E-02  4.911591E-03  4.911591E-03 -4.420432E-02
      47      -1.5000000000E-01 -2.0000000000E-01  1.0000000000E-01  4.911591E-03  1.473477E-02 -4.420432E-02
      48      -1.0000000000E-01 -2.0000000000E-01  1.5000000000E-01  4.911591E-03  2.455796E-02 -4.420432E-02
      49      -5.0000000000E-02 -2.0000000000E-01  2.0000000000E-01  4.911591E-03  3.438114E-02 -4.420432E-02
      50      -3.0000000000E-01 -1.5000000000E-01  0.0000000000E+00  1.473477E-02 -1.473477E-02 -4.420432E-02
      51      -2.5000000000E-01 -1.5000000000E-01  5.0000000000E-02  1.473477E-02 -4.911591E-03 -4.420432E-02
      52      -2.0000000000E-01 -1.5000000000E-01  1.0000000000E-01  1.473477E-02  4.911591E-03 -4.420432E-02
      53      -1.5000000000E-01 -1.5000000000E-01  1.5000000000E-01  1.473477E-02  1.473477E-02 -4.420432E-02
      54      -1.0000000000E-01 -1.5000000000E-01  2.0000000000E-01  1.473477E-02  2.455796E-02 -4.420432E-02
      55      -5.0000000000E-02 -1.5000000000E-01  2.5000000000E-01  1.473477E-02  3.438114E-02 -4.420432E-02
      56      -3.5000000000E-01 -1.0000000000E-01  0.0000000000E+00  2.455796E-02 -2.455796E-02 -4.420432E-02
      57      -3.0000000000E-01 -1.0000000000E-01  5.0000000000E-02  2.455796E-02 -1.473477E-02 -4.420432E-02
      58      -2.5000000000E-01 -1.0000000000E-01  1.0000000000E-01  2.455796E-02 -4.911591E-03 -4.420432E-02
      59      -2.0000000000E-01 -1.0000000000E-01  1.5000000000E-01  2.455796E-02  4.911591E-03 -4.420432E-02
      60      -1.5000000000E-01 -1.0000000000E-01  2.0000000000E-01  2.455796E-02  1.473477E-02 -4.420432E-02
      61      -1.0000000000E-01 -1.0000000000E-01  2.5000000000E-01  2.455796E-02  2.455796E-02 -4.420432E-02
      62      -5.0000000000E-02 -1.0000000000E-01  3.0000000000E-01  2.455796E-02  3.438114E-02 -4.420432E-02
      63      -4.0000000000E-01 -5.0000000000E-02  0.0000000000E+00  3.438114E-02 -3.438114E-02 -4.420432E-02
      64      -3.5000000000E-01 -5.0000000000E-02  5.0000000000E-02  3.438114E-02 -2.455796E-02 -4.420432E-02
      65      -3.0000000000E-01 -5.0000000000E-02  1.0000000000E-01  3.438114E-02 -1.473477E-02 -4.420432E-02
      66      -2.5000000000E-01 -5.0000000000E-02  1.5000000000E-01  3.438114E-02 -4.911591E-03 -4.420432E-02
      67      -2.0000000000E-01 -5.0000000000E-02  2.0000000000E-01  3.438114E-02  4.911591E-03 -4.420432E-02
      68      -1.5000000000E-01 -5.0000000000E-02  2.5000000000E-01  3.438114E-02  1.473477E-02 -4.420432E-02
      69      -1.0000000000E-01 -5.0000000000E-02  3.0000000000E-01  3.438114E-02  2.455796E-02 -4.420432E-02
      70      -5.0000000000E-02 -5.0000000000E-02  3.5000000000E-01  3.438114E-02  3.438114E-02 -4.420432E-02
      71      -5.0000000000E-02  5.0000000000E-01  0.0000000000E+00  5.402750E-02 -5.402750E-02  4.420432E-02
      72      -1.0000000000E-01 -4.5000000000E-01  0.0000000000E+00 -3.438114E-02  3.438114E-02 -5.402750E-02
      73      -5.0000000000E-02 -4.5000000000E-01  5.0000000000E-02 -3.438114E-02  4.420432E-02 -5.402750E-02
      74      -1.5000000000E-01 -4.0000000000E-01  0.0000000000E+00 -2.455796E-02  2.455796E-02 -5.402750E-02
      75      -1.0000000000E-01 -4.0000000000E-01  5.0000000000E-02 -2.455796E-02  3.438114E-02 -5.402750E-02
      76      -5.0000000000E-02 -4.0000000000E-01  1.0000000000E-01 -2.455796E-02  4.420432E-02 -5.402750E-02
      77      -2.0000000000E-01 -3.5000000000E-01  0.0000000000E+00 -1.473477E-02  1.473477E-02 -5.402750E-02
      78      -1.5000000000E-01 -3.5000000000E-01  5.0000000000E-02 -1.473477E-02  2.455796E-02 -5.402750E-02
      79      -1.0000000000E-01 -3.5000000000E-01  1.0000000000E-01 -1.473477E-02  3.438114E-02 -5.402750E-02
      80      -5.0000000000E-02 -3.5000000000E-01  1.5000000000E-01 -1.473477E-02  4.420432E-02 -5.402750E-02
      81      -2.5000000000E-01 -3.0000000000E-01  0.0000000000E+00 -4.911591E-03  4.911591E-03 -5.402750E-02
      82      -2.0000000000E-01 -3.0000000000E-01  5.0000000000E-02 -4.911591E-03  1.473477E-02 -5.402750E-02
      83      -1.5000000000E-01 -3.0000000000E-01  1.0000000000E-01 -4.911591E-03  2.455796E-02 -5.402750E-02
      84      -1.0000000000E-01 -3.0000000000E-01  1.5000000000E-01 -4.911591E-03  3.438114E-02 -5.402750E-02
      85      -5.0000000000E-02 -3.0000000000E-01  2.0000000000E-01 -4.911591E-03  4.420432E-02 -5.402750E-02
      86      -3.0000000000E-01 -2.5000000000E-01  0.0000000000E+00  4.911591E-03 -4.911591E-03 -5.402750E-02
      87      -2.5000000000E-01 -2.5000000000E-01  5.0000000000E-02  4.911591E-03  4.911591E-03 -5.402750E-02
      88      -2.0000000000E-01 -2.5000000000E-01  1.0000000000E-01  4.911591E-03  1.473477E-02 -5.402750E-02
      89      -1.5000000000E-01 -2.5000000000E-01  1.5000000000E-01  4.911591E-03  2.455796E-02 -5.402750E-02
      90      -1.0000000000E-01 -2.5000000000E-01  2.0000000000E-01  4.911591E-03  3.438114E-02 -5.402750E-02
      91      -5.0000000000E-02 -2.5000000000E-01  2.5000000000E-01  4.911591E-03  4.420432E-02 -5.402750E-02
      92      -3.5000000000E-01 -2.0000000000E-01  0.0000000000E+00  1.473477E-02 -1.473477E-02 -5.402750E-02
      93      -3.0000000000E-01 -2.0000000000E-01  5.0000000000E-02  1.473477E-02 -4.911591E-03 -5.402750E-02
      94      -2.5000000000E-01 -2.0000000000E-01  1.0000000000E-01  1.473477E-02  4.911591E-03 -5.402750E-02
      95      -2.0000000000E-01 -2.0000000000E-01  1.5000000000E-01  1.473477E-02  1.473477E-02 -5.402750E-02
      96      -1.5000000000E-01 -2.0000000000E-01  2.0000000000E-01  1.473477E-02  2.455796E-02 -5.402750E-02
      97      -1.0000000000E-01 -2.0000000000E-01  2.5000000000E-01  1.473477E-02  3.438114E-02 -5.402750E-02
      98      -5.0000000000E-02 -2.0000000000E-01  3.0000000000E-01  1.473477E-02  4.420432E-02 -5.402750E-02
      99      -4.0000000000E-01 -1.5000000000E-01  0.0000000000E+00  2.455796E-02 -2.455796E-02 -5.402750E-02
     100      -3.5000000000E-01 -1.5000000000E-01  5.0000000000E-02  2.455796E-02 -1.473477E-02 -5.402750E-02
 

  chkneu : enter, dtset%nelect=   8.0000000000000000     
  occopt,dtset%nsppol,dtset%nspden=           1           1           1
  maxocc,nocc,occlast=   2.0000000000000000                4   2.0000000000000000     
 chkneu : initialized the occupation numbers for occopt=    1, spin-unpolarized or antiferromagnetic case :
  2.00  2.00  2.00  2.00  0.00
 invars2: take the default value of fband=  1.25000000E-01
       Simple Lattice Grid
 
 invars2 : Printing the k point grid (values of kptns - max 100 of them)
 nkpt=     110
     ikpt istwfk    wtk       --------- reduced coordinates ---------  --------- cartesian coordinates ---------
       1     1  6.000000E-03 -5.000000E-02 -1.000000E-01  0.000000E+00 -4.911591E-03  4.911591E-03 -1.473477E-02
       2     1  6.000000E-03 -5.000000E-02 -2.000000E-01  0.000000E+00 -1.473477E-02  1.473477E-02 -2.455796E-02
       3     1  6.000000E-03 -1.000000E-01 -1.500000E-01  0.000000E+00 -4.911591E-03  4.911591E-03 -2.455796E-02
       4     1  1.200000E-02 -5.000000E-02 -1.500000E-01  5.000000E-02 -4.911591E-03  1.473477E-02 -2.455796E-02
       5     1  6.000000E-03 -5.000000E-02 -3.000000E-01  0.000000E+00 -2.455796E-02  2.455796E-02 -3.438114E-02
       6     1  6.000000E-03 -1.000000E-01 -2.500000E-01  0.000000E+00 -1.473477E-02  1.473477E-02 -3.438114E-02
       7     1  1.200000E-02 -5.000000E-02 -2.500000E-01  5.000000E-02 -1.473477E-02  2.455796E-02 -3.438114E-02
       8     1  6.000000E-03 -1.500000E-01 -2.000000E-01  0.000000E+00 -4.911591E-03  4.911591E-03 -3.438114E-02
       9     1  1.200000E-02 -1.000000E-01 -2.000000E-01  5.000000E-02 -4.911591E-03  1.473477E-02 -3.438114E-02
      10     1  1.200000E-02 -5.000000E-02 -2.000000E-01  1.000000E-01 -4.911591E-03  2.455796E-02 -3.438114E-02
      11     1  6.000000E-03 -5.000000E-02 -4.000000E-01  0.000000E+00 -3.438114E-02  3.438114E-02 -4.420432E-02
      12     1  6.000000E-03 -1.000000E-01 -3.500000E-01  0.000000E+00 -2.455796E-02  2.455796E-02 -4.420432E-02
      13     1  1.200000E-02 -5.000000E-02 -3.500000E-01  5.000000E-02 -2.455796E-02  3.438114E-02 -4.420432E-02
      14     1  6.000000E-03 -1.500000E-01 -3.000000E-01  0.000000E+00 -1.473477E-02  1.473477E-02 -4.420432E-02
      15     1  1.200000E-02 -1.000000E-01 -3.000000E-01  5.000000E-02 -1.473477E-02  2.455796E-02 -4.420432E-02
      16     1  1.200000E-02 -5.000000E-02 -3.000000E-01  1.000000E-01 -1.473477E-02  3.438114E-02 -4.420432E-02
      17     1  6.000000E-03 -2.000000E-01 -2.500000E-01  0.000000E+00 -4.911591E-03  4.911591E-03 -4.420432E-02
      18     1  1.200000E-02 -1.500000E-01 -2.500000E-01  5.000000E-02 -4.911591E-03  1.473477E-02 -4.420432E-02
      19     1  1.200000E-02 -1.000000E-01 -2.500000E-01  1.000000E-01 -4.911591E-03  2.455796E-02 -4.420432E-02
      20     1  1.200000E-02 -5.000000E-02 -2.500000E-01  1.500000E-01 -4.911591E-03  3.438114E-02 -4.420432E-02
      21     1  6.000000E-03 -5.000000E-02  5.000000E-01  0.000000E+00  5.402750E-02 -5.402750E-02  4.420432E-02
      22     1  6.000000E-03 -1.000000E-01 -4.500000E-01  0.000000E+00 -3.438114E-02  3.438114E-02 -5.402750E-02
      23     1  1.200000E-02 -5.000000E-02 -4.500000E-01  5.000000E-02 -3.438114E-02  4.420432E-02 -5.402750E-02
      24     1  6.000000E-03 -1.500000E-01 -4.000000E-01  0.000000E+00 -2.455796E-02  2.455796E-02 -5.402750E-02
      25     1  1.200000E-02 -1.000000E-01 -4.000000E-01  5.000000E-02 -2.455796E-02  3.438114E-02 -5.402750E-02
      26     1  1.200000E-02 -5.000000E-02 -4.000000E-01  1.000000E-01 -2.455796E-02  4.420432E-02 -5.402750E-02
      27     1  6.000000E-03 -2.000000E-01 -3.500000E-01  0.000000E+00 -1.473477E-02  1.473477E-02 -5.402750E-02
      28     1  1.200000E-02 -1.500000E-01 -3.500000E-01  5.000000E-02 -1.473477E-02  2.455796E-02 -5.402750E-02
      29     1  1.200000E-02 -1.000000E-01 -3.500000E-01  1.000000E-01 -1.473477E-02  3.438114E-02 -5.402750E-02
      30     1  1.200000E-02 -5.000000E-02 -3.500000E-01  1.500000E-01 -1.473477E-02  4.420432E-02 -5.402750E-02
      31     1  6.000000E-03 -2.500000E-01 -3.000000E-01  0.000000E+00 -4.911591E-03  4.911591E-03 -5.402750E-02
      32     1  1.200000E-02 -2.000000E-01 -3.000000E-01  5.000000E-02 -4.911591E-03  1.473477E-02 -5.402750E-02
      33     1  1.200000E-02 -1.500000E-01 -3.000000E-01  1.000000E-01 -4.911591E-03  2.455796E-02 -5.402750E-02
      34     1  1.200000E-02 -1.000000E-01 -3.000000E-01  1.500000E-01 -4.911591E-03  3.438114E-02 -5.402750E-02
      35     1  1.200000E-02 -5.000000E-02 -3.000000E-01  2.000000E-01 -4.911591E-03  4.420432E-02 -5.402750E-02
      36     1  6.000000E-03 -5.000000E-02  4.000000E-01  0.000000E+00  4.420432E-02 -4.420432E-02  3.438114E-02
      37     1  6.000000E-03 -1.000000E-01  4.500000E-01  0.000000E+00  5.402750E-02 -5.402750E-02  3.438114E-02
      38     1  6.000000E-03 -1.500000E-01  5.000000E-01  0.000000E+00  6.385069E-02 -6.385069E-02  3.438114E-02
      39     1  1.200000E-02 -1.000000E-01  5.000000E-01  5.000000E-02  6.385069E-02 -5.402750E-02  3.438114E-02
      40     1  6.000000E-03 -2.000000E-01 -4.500000E-01  0.000000E+00 -2.455796E-02  2.455796E-02 -6.385069E-02
      41     1  1.200000E-02 -1.500000E-01 -4.500000E-01  5.000000E-02 -2.455796E-02  3.438114E-02 -6.385069E-02
      42     1  1.200000E-02 -1.000000E-01 -4.500000E-01  1.000000E-01 -2.455796E-02  4.420432E-02 -6.385069E-02
      43     1  1.200000E-02 -5.000000E-02 -4.500000E-01  1.500000E-01 -2.455796E-02  5.402750E-02 -6.385069E-02
      44     1  6.000000E-03 -2.500000E-01 -4.000000E-01  0.000000E+00 -1.473477E-02  1.473477E-02 -6.385069E-02
      45     1  1.200000E-02 -2.000000E-01 -4.000000E-01  5.000000E-02 -1.473477E-02  2.455796E-02 -6.385069E-02
      46     1  1.200000E-02 -1.500000E-01 -4.000000E-01  1.000000E-01 -1.473477E-02  3.438114E-02 -6.385069E-02
      47     1  1.200000E-02 -1.000000E-01 -4.000000E-01  1.500000E-01 -1.473477E-02  4.420432E-02 -6.385069E-02
      48     1  1.200000E-02 -5.000000E-02 -4.000000E-01  2.000000E-01 -1.473477E-02  5.402750E-02 -6.385069E-02
      49     1  6.000000E-03 -3.000000E-01 -3.500000E-01  0.000000E+00 -4.911591E-03  4.911591E-03 -6.385069E-02
      50     1  1.200000E-02 -2.500000E-01 -3.500000E-01  5.000000E-02 -4.911591E-03  1.473477E-02 -6.385069E-02
      51     1  1.200000E-02 -2.000000E-01 -3.500000E-01  1.000000E-01 -4.911591E-03  2.455796E-02 -6.385069E-02
      52     1  1.200000E-02 -1.500000E-01 -3.500000E-01  1.500000E-01 -4.911591E-03  3.438114E-02 -6.385069E-02
      53     1  1.200000E-02 -1.000000E-01 -3.500000E-01  2.000000E-01 -4.911591E-03  4.420432E-02 -6.385069E-02
      54     1  1.200000E-02 -5.000000E-02 -3.500000E-01  2.500000E-01 -4.911591E-03  5.402750E-02 -6.385069E-02
      55     1  6.000000E-03 -5.000000E-02  3.000000E-01  0.000000E+00  3.438114E-02 -3.438114E-02  2.455796E-02
      56     1  6.000000E-03 -1.000000E-01  3.500000E-01  0.000000E+00  4.420432E-02 -4.420432E-02  2.455796E-02
      57     1  6.000000E-03 -1.500000E-01  4.000000E-01  0.000000E+00  5.402750E-02 -5.402750E-02  2.455796E-02
      58     1  6.000000E-03 -2.000000E-01  4.500000E-01  0.000000E+00  6.385069E-02 -6.385069E-02  2.455796E-02
      59     1  6.000000E-03 -2.500000E-01  5.000000E-01  0.000000E+00  7.367387E-02 -7.367387E-02  2.455796E-02
      60     1  1.200000E-02 -2.000000E-01  5.000000E-01  5.000000E-02  7.367387E-02 -6.385069E-02  2.455796E-02
      61     1  1.200000E-02 -1.500000E-01  5.000000E-01  1.000000E-01  7.367387E-02 -5.402750E-02  2.455796E-02
      62     1  6.000000E-03 -3.000000E-01 -4.500000E-01  0.000000E+00 -1.473477E-02  1.473477E-02 -7.367387E-02
      63     1  1.200000E-02 -2.500000E-01 -4.500000E-01  5.000000E-02 -1.473477E-02  2.455796E-02 -7.367387E-02
      64     1  1.200000E-02 -2.000000E-01 -4.500000E-01  1.000000E-01 -1.473477E-02  3.438114E-02 -7.367387E-02
      65     1  1.200000E-02 -1.500000E-01 -4.500000E-01  1.500000E-01 -1.473477E-02  4.420432E-02 -7.367387E-02
      66     1  1.200000E-02 -1.000000E-01 -4.500000E-01  2.000000E-01 -1.473477E-02  5.402750E-02 -7.367387E-02
      67     1  1.200000E-02 -5.000000E-02 -4.500000E-01  2.500000E-01 -1.473477E-02  6.385069E-02 -7.367387E-02
      68     1  6.000000E-03 -3.500000E-01 -4.000000E-01  0.000000E+00 -4.911591E-03  4.911591E-03 -7.367387E-02
      69     1  1.200000E-02 -3.000000E-01 -4.000000E-01  5.000000E-02 -4.911591E-03  1.473477E-02 -7.367387E-02
      70     1  1.200000E-02 -2.500000E-01 -4.000000E-01  1.000000E-01 -4.911591E-03  2.455796E-02 -7.367387E-02
      71     1  1.200000E-02 -2.000000E-01 -4.000000E-01  1.500000E-01 -4.911591E-03  3.438114E-02 -7.367387E-02
      72     1  1.200000E-02 -1.500000E-01 -4.000000E-01  2.000000E-01 -4.911591E-03  4.420432E-02 -7.367387E-02
      73     1  1.200000E-02 -1.000000E-01 -4.000000E-01  2.500000E-01 -4.911591E-03  5.402750E-02 -7.367387E-02
      74     1  1.200000E-02 -5.000000E-02 -4.000000E-01  3.000000E-01 -4.911591E-03  6.385069E-02 -7.367387E-02
      75     1  6.000000E-03 -5.000000E-02  2.000000E-01  0.000000E+00  2.455796E-02 -2.455796E-02  1.473477E-02
      76     1  6.000000E-03 -1.000000E-01  2.500000E-01  0.000000E+00  3.438114E-02 -3.438114E-02  1.473477E-02
      77     1  6.000000E-03 -1.500000E-01  3.000000E-01  0.000000E+00  4.420432E-02 -4.420432E-02  1.473477E-02
      78     1  6.000000E-03 -2.000000E-01  3.500000E-01  0.000000E+00  5.402750E-02 -5.402750E-02  1.473477E-02
      79     1  6.000000E-03 -2.500000E-01  4.000000E-01  0.000000E+00  6.385069E-02 -6.385069E-02  1.473477E-02
      80     1  6.000000E-03 -3.000000E-01  4.500000E-01  0.000000E+00  7.367387E-02 -7.367387E-02  1.473477E-02
      81     1  6.000000E-03 -3.500000E-01  5.000000E-01  0.000000E+00  8.349705E-02 -8.349705E-02  1.473477E-02
      82     1  1.200000E-02 -3.000000E-01  5.000000E-01  5.000000E-02  8.349705E-02 -7.367387E-02  1.473477E-02
      83     1  1.200000E-02 -2.500000E-01  5.000000E-01  1.000000E-01  8.349705E-02 -6.385069E-02  1.473477E-02
      84     1  1.200000E-02 -2.000000E-01  5.000000E-01  1.500000E-01  8.349705E-02 -5.402750E-02  1.473477E-02
      85     1  6.000000E-03 -4.000000E-01 -4.500000E-01  0.000000E+00 -4.911591E-03  4.911591E-03 -8.349705E-02
      86     1  1.200000E-02 -3.500000E-01 -4.500000E-01  5.000000E-02 -4.911591E-03  1.473477E-02 -8.349705E-02
      87     1  1.200000E-02 -3.000000E-01 -4.500000E-01  1.000000E-01 -4.911591E-03  2.455796E-02 -8.349705E-02
      88     1  1.200000E-02 -2.500000E-01 -4.500000E-01  1.500000E-01 -4.911591E-03  3.438114E-02 -8.349705E-02
      89     1  1.200000E-02 -2.000000E-01 -4.500000E-01  2.000000E-01 -4.911591E-03  4.420432E-02 -8.349705E-02
      90     1  1.200000E-02 -1.500000E-01 -4.500000E-01  2.500000E-01 -4.911591E-03  5.402750E-02 -8.349705E-02
      91     1  1.200000E-02 -1.000000E-01 -4.500000E-01  3.000000E-01 -4.911591E-03  6.385069E-02 -8.349705E-02
      92     1  1.200000E-02 -5.000000E-02 -4.500000E-01  3.500000E-01 -4.911591E-03  7.367387E-02 -8.349705E-02
      93     1  6.000000E-03 -5.000000E-02  1.000000E-01  0.000000E+00  1.473477E-02 -1.473477E-02  4.911591E-03
      94     1  6.000000E-03 -1.000000E-01  1.500000E-01  0.000000E+00  2.455796E-02 -2.455796E-02  4.911591E-03
      95     1  6.000000E-03 -1.500000E-01  2.000000E-01  0.000000E+00  3.438114E-02 -3.438114E-02  4.911591E-03
      96     1  6.000000E-03 -2.000000E-01  2.500000E-01  0.000000E+00  4.420432E-02 -4.420432E-02  4.911591E-03
      97     1  6.000000E-03 -2.500000E-01  3.000000E-01  0.000000E+00  5.402750E-02 -5.402750E-02  4.911591E-03
      98     1  6.000000E-03 -3.000000E-01  3.500000E-01  0.000000E+00  6.385069E-02 -6.385069E-02  4.911591E-03
      99     1  6.000000E-03 -3.500000E-01  4.000000E-01  0.000000E+00  7.367387E-02 -7.367387E-02  4.911591E-03
     100     1  6.000000E-03 -4.000000E-01  4.500000E-01  0.000000E+00  8.349705E-02 -8.349705E-02  4.911591E-03
 
 invars2 : Printing the k point grid from kptrlatt, shifted with shiftk and qptn, in the full Brillouin zone.
   Maximum 100 of them. No use of symmetries
 nkpt_fullbz=    4000
     ikpt      --------------- reduced coordinates ---------------  --------- cartesian coordinates ---------
       1      -5.0000000000E-02 -1.0000000000E-01  0.0000000000E+00 -4.911591E-03  4.911591E-03 -1.473477E-02
       2      -1.0000000000E-01 -5.0000000000E-02  0.0000000000E+00  4.911591E-03 -4.911591E-03 -1.473477E-02
       3      -5.0000000000E-02 -5.0000000000E-02  5.0000000000E-02  4.911591E-03  4.911591E-03 -1.473477E-02
       4      -5.0000000000E-02 -2.0000000000E-01  0.0000000000E+00 -1.473477E-02  1.473477E-02 -2.455796E-02
       5      -1.0000000000E-01 -1.5000000000E-01  0.0000000000E+00 -4.911591E-03  4.911591E-03 -2.455796E-02
       6      -5.0000000000E-02 -1.5000000000E-01  5.0000000000E-02 -4.911591E-03  1.473477E-02 -2.455796E-02
       7      -1.5000000000E-01 -1.0000000000E-01  0.0000000000E+00  4.911591E-03 -4.911591E-03 -2.455796E-02
       8      -1.0000000000E-01 -1.0000000000E-01  5.0000000000E-02  4.911591E-03  4.911591E-03 -2.455796E-02
       9      -5.0000000000E-02 -1.0000000000E-01  1.0000000000E-01  4.911591E-03  1.473477E-02 -2.455796E-02
      10      -2.0000000000E-01 -5.0000000000E-02  0.0000000000E+00  1.473477E-02 -1.473477E-02 -2.455796E-02
      11      -1.5000000000E-01 -5.0000000000E-02  5.0000000000E-02  1.473477E-02 -4.911591E-03 -2.455796E-02
      12      -1.0000000000E-01 -5.0000000000E-02  1.0000000000E-01  1.473477E-02  4.911591E-03 -2.455796E-02
      13      -5.0000000000E-02 -5.0000000000E-02  1.5000000000E-01  1.473477E-02  1.473477E-02 -2.455796E-02
      14      -5.0000000000E-02 -3.0000000000E-01  0.0000000000E+00 -2.455796E-02  2.455796E-02 -3.438114E-02
      15      -1.0000000000E-01 -2.5000000000E-01  0.0000000000E+00 -1.473477E-02  1.473477E-02 -3.438114E-02
      16      -5.0000000000E-02 -2.5000000000E-01  5.0000000000E-02 -1.473477E-02  2.455796E-02 -3.438114E-02
      17      -1.5000000000E-01 -2.0000000000E-01  0.0000000000E+00 -4.911591E-03  4.911591E-03 -3.438114E-02
      18      -1.0000000000E-01 -2.0000000000E-01  5.0000000000E-02 -4.911591E-03  1.473477E-02 -3.438114E-02
      19      -5.0000000000E-02 -2.0000000000E-01  1.0000000000E-01 -4.911591E-03  2.455796E-02 -3.438114E-02
      20      -2.0000000000E-01 -1.5000000000E-01  0.0000000000E+00  4.911591E-03 -4.911591E-03 -3.438114E-02
      21      -1.5000000000E-01 -1.5000000000E-01  5.0000000000E-02  4.911591E-03  4.911591E-03 -3.438114E-02
      22      -1.0000000000E-01 -1.5000000000E-01  1.0000000000E-01  4.911591E-03  1.473477E-02 -3.438114E-02
      23      -5.0000000000E-02 -1.5000000000E-01  1.5000000000E-01  4.911591E-03  2.455796E-02 -3.438114E-02
      24      -2.5000000000E-01 -1.0000000000E-01  0.0000000000E+00  1.473477E-02 -1.473477E-02 -3.438114E-02
      25      -2.0000000000E-01 -1.0000000000E-01  5.0000000000E-02  1.473477E-02 -4.911591E-03 -3.438114E-02
      26      -1.5000000000E-01 -1.0000000000E-01  1.0000000000E-01  1.473477E-02  4.911591E-03 -3.438114E-02
      27      -1.0000000000E-01 -1.0000000000E-01  1.5000000000E-01  1.473477E-02  1.473477E-02 -3.438114E-02
      28      -5.0000000000E-02 -1.0000000000E-01  2.0000000000E-01  1.473477E-02  2.455796E-02 -3.438114E-02
      29      -3.0000000000E-01 -5.0000000000E-02  0.0000000000E+00  2.455796E-02 -2.455796E-02 -3.438114E-02
      30      -2.5000000000E-01 -5.0000000000E-02  5.0000000000E-02  2.455796E-02 -1.473477E-02 -3.438114E-02
      31      -2.0000000000E-01 -5.0000000000E-02  1.0000000000E-01  2.455796E-02 -4.911591E-03 -3.438114E-02
      32      -1.5000000000E-01 -5.0000000000E-02  1.5000000000E-01  2.455796E-02  4.911591E-03 -3.438114E-02
      33      -1.0000000000E-01 -5.0000000000E-02  2.0000000000E-01  2.455796E-02  1.473477E-02 -3.438114E-02
      34      -5.0000000000E-02 -5.0000000000E-02  2.5000000000E-01  2.455796E-02  2.455796E-02 -3.438114E-02
      35      -5.0000000000E-02 -4.0000000000E-01  0.0000000000E+00 -3.438114E-02  3.438114E-02 -4.420432E-02
      36      -1.0000000000E-01 -3.5000000000E-01  0.0000000000E+00 -2.455796E-02  2.455796E-02 -4.420432E-02
      37      -5.0000000000E-02 -3.5000000000E-01  5.0000000000E-02 -2.455796E-02  3.438114E-02 -4.420432E-02
      38      -1.5000000000E-01 -3.0000000000E-01  0.0000000000E+00 -1.473477E-02  1.473477E-02 -4.420432E-02
      39      -1.0000000000E-01 -3.0000000000E-01  5.0000000000E-02 -1.473477E-02  2.455796E-02 -4.420432E-02
      40      -5.0000000000E-02 -3.0000000000E-01  1.0000000000E-01 -1.473477E-02  3.438114E-02 -4.420432E-02
      41      -2.0000000000E-01 -2.5000000000E-01  0.0000000000E+00 -4.911591E-03  4.911591E-03 -4.420432E-02
      42      -1.5000000000E-01 -2.5000000000E-01  5.0000000000E-02 -4.911591E-03  1.473477E-02 -4.420432E-02
      43      -1.0000000000E-01 -2.5000000000E-01  1.0000000000E-01 -4.911591E-03  2.455796E-02 -4.420432E-02
      44      -5.0000000000E-02 -2.5000000000E-01  1.5000000000E-01 -4.911591E-03  3.438114E-02 -4.420432E-02
      45      -2.5000000000E-01 -2.0000000000E-01  0.0000000000E+00  4.911591E-03 -4.911591E-03 -4.420432E-02
      46      -2.0000000000E-01 -2.0000000000E-01  5.0000000000E-02  4.911591E-03  4.911591E-03 -4.420432E-02
      47      -1.5000000000E-01 -2.0000000000E-01  1.0000000000E-01  4.911591E-03  1.473477E-02 -4.420432E-02
      48      -1.0000000000E-01 -2.0000000000E-01  1.5000000000E-01  4.911591E-03  2.455796E-02 -4.420432E-02
      49      -5.0000000000E-02 -2.0000000000E-01  2.0000000000E-01  4.911591E-03  3.438114E-02 -4.420432E-02
      50      -3.0000000000E-01 -1.5000000000E-01  0.0000000000E+00  1.473477E-02 -1.473477E-02 -4.420432E-02
      51      -2.5000000000E-01 -1.5000000000E-01  5.0000000000E-02  1.473477E-02 -4.911591E-03 -4.420432E-02
      52      -2.0000000000E-01 -1.5000000000E-01  1.0000000000E-01  1.473477E-02  4.911591E-03 -4.420432E-02
      53      -1.5000000000E-01 -1.5000000000E-01  1.5000000000E-01  1.473477E-02  1.473477E-02 -4.420432E-02
      54      -1.0000000000E-01 -1.5000000000E-01  2.0000000000E-01  1.473477E-02  2.455796E-02 -4.420432E-02
      55      -5.0000000000E-02 -1.5000000000E-01  2.5000000000E-01  1.473477E-02  3.438114E-02 -4.420432E-02
      56      -3.5000000000E-01 -1.0000000000E-01  0.0000000000E+00  2.455796E-02 -2.455796E-02 -4.420432E-02
      57      -3.0000000000E-01 -1.0000000000E-01  5.0000000000E-02  2.455796E-02 -1.473477E-02 -4.420432E-02
      58      -2.5000000000E-01 -1.0000000000E-01  1.0000000000E-01  2.455796E-02 -4.911591E-03 -4.420432E-02
      59      -2.0000000000E-01 -1.0000000000E-01  1.5000000000E-01  2.455796E-02  4.911591E-03 -4.420432E-02
      60      -1.5000000000E-01 -1.0000000000E-01  2.0000000000E-01  2.455796E-02  1.473477E-02 -4.420432E-02
[...]
          spgroup         227
           strten1     3.9807361966E-07  3.9807361966E-07  3.9807361966E-07
                       0.0000000000E+00  0.0000000000E+00  0.0000000000E+00
           strten2    -2.9654441537E-07 -2.9654441537E-07 -2.9654441537E-07
                       0.0000000000E+00  0.0000000000E+00  0.0000000000E+00
           strten3    -3.3118500369E-07 -3.3118500369E-07 -3.3118500369E-07
                       0.0000000000E+00  0.0000000000E+00  0.0000000000E+00
           strten4    -3.6984134627E-07 -3.6984134627E-07 -3.6984134627E-07
                       0.0000000000E+00  0.0000000000E+00  0.0000000000E+00
           strten5    -3.6359141098E-07 -3.6359141098E-07 -3.6359141098E-07
                       0.0000000000E+00  0.0000000000E+00  0.0000000000E+00
           strten6    -3.7444093740E-07 -3.7444093740E-07 -3.7444093740E-07
                       0.0000000000E+00  0.0000000000E+00  0.0000000000E+00
           strten7    -3.7212051645E-07 -3.7212051645E-07 -3.7212051645E-07
                       0.0000000000E+00  0.0000000000E+00  0.0000000000E+00
           strten8    -3.7127345785E-07 -3.7127345785E-07 -3.7127345785E-07
                       0.0000000000E+00  0.0000000000E+00  0.0000000000E+00
           strten9    -3.7066703703E-07 -3.7066703703E-07 -3.7066703703E-07
                       0.0000000000E+00  0.0000000000E+00  0.0000000000E+00
           strten10   -3.6887663374E-07 -3.6887663374E-07 -3.6887663374E-07
                       0.0000000000E+00  0.0000000000E+00  0.0000000000E+00
           strten11   -3.6637056073E-07 -3.6637056073E-07 -3.6637056073E-07
                       0.0000000000E+00  0.0000000000E+00  0.0000000000E+00
           strten12   -3.7036389319E-07 -3.7036389319E-07 -3.7036389319E-07
                       0.0000000000E+00  0.0000000000E+00  0.0000000000E+00
           strten13   -3.6808948436E-07 -3.6808948436E-07 -3.6808948436E-07
                       0.0000000000E+00  0.0000000000E+00  0.0000000000E+00
           strten14   -3.7028370317E-07 -3.7028370317E-07 -3.7028370317E-07
                       0.0000000000E+00  0.0000000000E+00  0.0000000000E+00
           strten15   -3.7024087957E-07 -3.7024087957E-07 -3.7024087957E-07
                       0.0000000000E+00  0.0000000000E+00  0.0000000000E+00
           strten16   -3.6985611598E-07 -3.6985611598E-07 -3.6985611598E-07
                       0.0000000000E+00  0.0000000000E+00  0.0000000000E+00
           strten17   -3.6857308075E-07 -3.6857308075E-07 -3.6857308075E-07
                       0.0000000000E+00  0.0000000000E+00  0.0000000000E+00
           strten18   -3.7031865564E-07 -3.7031865564E-07 -3.7031865564E-07
                       0.0000000000E+00  0.0000000000E+00  0.0000000000E+00
           strten19   -3.6961306873E-07 -3.6961306873E-07 -3.6961306873E-07
                       0.0000000000E+00  0.0000000000E+00  0.0000000000E+00
           strten20   -3.7053825418E-07 -3.7053825418E-07 -3.7053825418E-07
                       0.0000000000E+00  0.0000000000E+00  0.0000000000E+00
           strten21   -3.7027109233E-07 -3.7027109233E-07 -3.7027109233E-07
                       0.0000000000E+00  0.0000000000E+00  0.0000000000E+00
           strten22   -3.7020582603E-07 -3.7020582603E-07 -3.7020582603E-07
                       0.0000000000E+00  0.0000000000E+00  0.0000000000E+00
           symrel      1  0  0   0  1  0   0  0  1      -1  0  0   0 -1  0   0  0 -1
                       0 -1  1   0 -1  0   1 -1  0       0  1 -1   0  1  0  -1  1  0
                      -1  0  0  -1  0  1  -1  1  0       1  0  0   1  0 -1   1 -1  0
                       0  1 -1   1  0 -1   0  0 -1       0 -1  1  -1  0  1   0  0  1
                      -1  0  0  -1  1  0  -1  0  1       1  0  0   1 -1  0   1  0 -1
                       0 -1  1   1 -1  0   0 -1  0       0  1 -1  -1  1  0   0  1  0
                       1  0  0   0  0  1   0  1  0      -1  0  0   0  0 -1   0 -1  0
                       0  1 -1   0  0 -1   1  0 -1       0 -1  1   0  0  1  -1  0  1
                      -1  0  1  -1  1  0  -1  0  0       1  0 -1   1 -1  0   1  0  0
                       0 -1  0   1 -1  0   0 -1  1       0  1  0  -1  1  0   0  1 -1
                       1  0 -1   0  0 -1   0  1 -1      -1  0  1   0  0  1   0 -1  1
                       0  1  0   0  0  1   1  0  0       0 -1  0   0  0 -1  -1  0  0
                       1  0 -1   0  1 -1   0  0 -1      -1  0  1   0 -1  1   0  0  1
                       0 -1  0   0 -1  1   1 -1  0       0  1  0   0  1 -1  -1  1  0
                      -1  0  1  -1  0  0  -1  1  0       1  0 -1   1  0  0   1 -1  0
                       0  1  0   1  0  0   0  0  1       0 -1  0  -1  0  0   0  0 -1
                       0  0 -1   0  1 -1   1  0 -1       0  0  1   0 -1  1  -1  0  1
                       1 -1  0   0 -1  1   0 -1  0      -1  1  0   0  1 -1   0  1  0
                       0  0  1   1  0  0   0  1  0       0  0 -1  -1  0  0   0 -1  0
                      -1  1  0  -1  0  0  -1  0  1       1 -1  0   1  0  0   1  0 -1
                       0  0  1   0  1  0   1  0  0       0  0 -1   0 -1  0  -1  0  0
                       1 -1  0   0 -1  0   0 -1  1      -1  1  0   0  1  0   0  1 -1
                       0  0 -1   1  0 -1   0  1 -1       0  0  1  -1  0  1   0 -1  1
                      -1  1  0  -1  0  1  -1  0  0       1 -1  0   1  0 -1   1  0  0
            tnons      0.0000000  0.0000000  0.0000000     0.2500000  0.2500000  0.2500000
                       0.0000000  0.0000000  0.0000000     0.2500000  0.2500000  0.2500000
                       0.0000000  0.0000000  0.0000000     0.2500000  0.2500000  0.2500000
                       0.0000000  0.0000000  0.0000000     0.2500000  0.2500000  0.2500000
                       0.0000000  0.0000000  0.0000000     0.2500000  0.2500000  0.2500000
                       0.0000000  0.0000000  0.0000000     0.2500000  0.2500000  0.2500000
                       0.0000000  0.0000000  0.0000000     0.2500000  0.2500000  0.2500000
                       0.0000000  0.0000000  0.0000000     0.2500000  0.2500000  0.2500000
                       0.0000000  0.0000000  0.0000000     0.2500000  0.2500000  0.2500000
                       0.0000000  0.0000000  0.0000000     0.2500000  0.2500000  0.2500000
                       0.0000000  0.0000000  0.0000000     0.2500000  0.2500000  0.2500000
                       0.0000000  0.0000000  0.0000000     0.2500000  0.2500000  0.2500000
                       0.0000000  0.0000000  0.0000000     0.2500000  0.2500000  0.2500000
                       0.0000000  0.0000000  0.0000000     0.2500000  0.2500000  0.2500000
                       0.0000000  0.0000000  0.0000000     0.2500000  0.2500000  0.2500000
                       0.0000000  0.0000000  0.0000000     0.2500000  0.2500000  0.2500000
                       0.0000000  0.0000000  0.0000000     0.2500000  0.2500000  0.2500000
                       0.0000000  0.0000000  0.0000000     0.2500000  0.2500000  0.2500000
                       0.0000000  0.0000000  0.0000000     0.2500000  0.2500000  0.2500000
                       0.0000000  0.0000000  0.0000000     0.2500000  0.2500000  0.2500000
                       0.0000000  0.0000000  0.0000000     0.2500000  0.2500000  0.2500000
                       0.0000000  0.0000000  0.0000000     0.2500000  0.2500000  0.2500000
                       0.0000000  0.0000000  0.0000000     0.2500000  0.2500000  0.2500000
                       0.0000000  0.0000000  0.0000000     0.2500000  0.2500000  0.2500000
           toldfe      1.00000000E-06 Hartree
            typat      1  1
              wtk        0.00600    0.00600    0.00600    0.01200    0.00600    0.00600
                         0.01200    0.00600    0.01200    0.01200    0.00600    0.00600
                         0.01200    0.00600    0.01200    0.01200    0.00600    0.01200
                         0.01200    0.01200    0.00600    0.00600    0.01200    0.00600
                         0.01200    0.01200    0.00600    0.01200    0.01200    0.01200
                         0.00600    0.01200    0.01200    0.01200    0.01200    0.00600
                         0.00600    0.00600    0.01200    0.00600    0.01200    0.01200
                         0.01200    0.00600    0.01200    0.01200    0.01200    0.01200
                         0.00600    0.01200
                       outvars : Printing only first  50 k-points.
           xangst1     0.0000000000E+00  0.0000000000E+00  0.0000000000E+00
                       1.3515098903E+00  1.3515098903E+00  1.3515098903E+00
           xangst2     0.0000000000E+00  0.0000000000E+00  0.0000000000E+00
                       1.3491594291E+00  1.3491594291E+00  1.3491594291E+00
           xangst3     0.0000000000E+00  0.0000000000E+00  0.0000000000E+00
                       1.3493003012E+00  1.3493003012E+00  1.3493003012E+00
           xangst4     0.0000000000E+00  0.0000000000E+00  0.0000000000E+00
                       1.3493938281E+00  1.3493938281E+00  1.3493938281E+00
           xangst5     0.0000000000E+00  0.0000000000E+00  0.0000000000E+00
                       1.3494106171E+00  1.3494106171E+00  1.3494106171E+00
           xangst6     0.0000000000E+00  0.0000000000E+00  0.0000000000E+00
                       1.3494297062E+00  1.3494297062E+00  1.3494297062E+00
           xangst7     0.0000000000E+00  0.0000000000E+00  0.0000000000E+00
                       1.3494340088E+00  1.3494340088E+00  1.3494340088E+00
           xangst8     0.0000000000E+00  0.0000000000E+00  0.0000000000E+00
                       1.3494333355E+00  1.3494333355E+00  1.3494333355E+00
           xangst9    -7.4585869184E-32  2.0401915263E-32  7.4680649233E-32
                       1.3494348974E+00  1.3494348974E+00  1.3494348974E+00
           xangst10    0.0000000000E+00  0.0000000000E+00  0.0000000000E+00
                       1.3494299685E+00  1.3494299685E+00  1.3494299685E+00
           xangst11    1.5792644076E-31 -1.5792644076E-31 -1.5792644076E-31
                       1.3494330911E+00  1.3494330911E+00  1.3494330911E+00
           xangst12    1.1278769869E-31 -1.1278769869E-31 -1.1278769869E-31
                       1.3494349639E+00  1.3494349639E+00  1.3494349639E+00
           xangst13    3.3377329073E-31  6.3039613934E-32 -3.3389808790E-31
                       1.3494362259E+00  1.3494362259E+00  1.3494362259E+00
           xangst14    0.0000000000E+00  0.0000000000E+00  0.0000000000E+00
                       1.3494360798E+00  1.3494360798E+00  1.3494360798E+00
           xangst15    0.0000000000E+00  0.0000000000E+00  0.0000000000E+00
                       1.3494360267E+00  1.3494360267E+00  1.3494360267E+00
           xangst16    0.0000000000E+00  0.0000000000E+00  0.0000000000E+00
                       1.3494358934E+00  1.3494358934E+00  1.3494358934E+00
           xangst17    9.0240208372E-32  9.0240208372E-32 -9.0240208372E-32
                       1.3494360407E+00  1.3494360407E+00  1.3494360407E+00
           xangst18    0.0000000000E+00  0.0000000000E+00  0.0000000000E+00
                       1.3494359722E+00  1.3494359722E+00  1.3494359722E+00
           xangst19    0.0000000000E+00  0.0000000000E+00  0.0000000000E+00
                       1.3494363293E+00  1.3494363293E+00  1.3494363293E+00
           xangst20    0.0000000000E+00  0.0000000000E+00  0.0000000000E+00
                       1.3494363296E+00  1.3494363296E+00  1.3494363296E+00
           xangst21    0.0000000000E+00  0.0000000000E+00  0.0000000000E+00
                       1.3494364523E+00  1.3494364523E+00  1.3494364523E+00
           xangst22    9.0234762422E-32 -9.0234762422E-32 -9.0234762422E-32
                       1.3494364705E+00  1.3494364705E+00  1.3494364705E+00
            xcart1     0.0000000000E+00  0.0000000000E+00  0.0000000000E+00
                       2.5539835585E+00  2.5539835585E+00  2.5539835585E+00
            xcart2     0.0000000000E+00  0.0000000000E+00  0.0000000000E+00
                       2.5495418306E+00  2.5495418306E+00  2.5495418306E+00
            xcart3     0.0000000000E+00  0.0000000000E+00  0.0000000000E+00
                       2.5498080403E+00  2.5498080403E+00  2.5498080403E+00
            xcart4     0.0000000000E+00  0.0000000000E+00  0.0000000000E+00
                       2.5499847805E+00  2.5499847805E+00  2.5499847805E+00
            xcart5     0.0000000000E+00  0.0000000000E+00  0.0000000000E+00
                       2.5500165071E+00  2.5500165071E+00  2.5500165071E+00
            xcart6     0.0000000000E+00  0.0000000000E+00  0.0000000000E+00
                       2.5500525803E+00  2.5500525803E+00  2.5500525803E+00
            xcart7     0.0000000000E+00  0.0000000000E+00  0.0000000000E+00
                       2.5500607111E+00  2.5500607111E+00  2.5500607111E+00
            xcart8     0.0000000000E+00  0.0000000000E+00  0.0000000000E+00
                       2.5500594387E+00  2.5500594387E+00  2.5500594387E+00
            xcart9    -1.4094686614E-31  3.8554032434E-32  1.4112597448E-31
                       2.5500623902E+00  2.5500623902E+00  2.5500623902E+00
            xcart10    0.0000000000E+00  0.0000000000E+00  0.0000000000E+00
                       2.5500530760E+00  2.5500530760E+00  2.5500530760E+00
            xcart11    2.9843772218E-31 -2.9843772218E-31 -2.9843772218E-31
                       2.5500589769E+00  2.5500589769E+00  2.5500589769E+00
            xcart12    2.1313786168E-31 -2.1313786168E-31 -2.1313786168E-31
                       2.5500625160E+00  2.5500625160E+00  2.5500625160E+00
            xcart13    6.3074010996E-31  1.1912760586E-31 -6.3097594243E-31
                       2.5500649007E+00  2.5500649007E+00  2.5500649007E+00
            xcart14    0.0000000000E+00  0.0000000000E+00  0.0000000000E+00
                       2.5500646246E+00  2.5500646246E+00  2.5500646246E+00
            xcart15    0.0000000000E+00  0.0000000000E+00  0.0000000000E+00
                       2.5500645243E+00  2.5500645243E+00  2.5500645243E+00
            xcart16    0.0000000000E+00  0.0000000000E+00  0.0000000000E+00
                       2.5500642725E+00  2.5500642725E+00  2.5500642725E+00
            xcart17    1.7052928000E-31  1.7052928000E-31 -1.7052928000E-31
                       2.5500645507E+00  2.5500645507E+00  2.5500645507E+00
            xcart18    0.0000000000E+00  0.0000000000E+00  0.0000000000E+00
                       2.5500644214E+00  2.5500644214E+00  2.5500644214E+00
            xcart19    0.0000000000E+00  0.0000000000E+00  0.0000000000E+00
                       2.5500650961E+00  2.5500650961E+00  2.5500650961E+00
            xcart20    0.0000000000E+00  0.0000000000E+00  0.0000000000E+00
                       2.5500650967E+00  2.5500650967E+00  2.5500650967E+00
            xcart21    0.0000000000E+00  0.0000000000E+00  0.0000000000E+00
                       2.5500653287E+00  2.5500653287E+00  2.5500653287E+00
            xcart22    1.7051898864E-31 -1.7051898864E-31 -1.7051898864E-31
                       2.5500653630E+00  2.5500653630E+00  2.5500653630E+00
             xred      0.0000000000E+00  0.0000000000E+00  0.0000000000E+00
                       2.5000000000E-01  2.5000000000E-01  2.5000000000E-01
            znucl       14.00000

================================================================================
  

================================================================================

 Suggested references for the acknowledgment of ABINIT usage.

 The users of ABINIT have little formal obligations with respect to the ABINIT group
 (those specified in the GNU General Public License, http://www.gnu.org/copyleft/gpl.txt).
 However, it is common practice in the scientific literature,
 to acknowledge the efforts of people that have made the research possible.
 In this spirit, please find below suggested citations of work written by ABINIT developers,
 corresponding to implementations inside of ABINIT that you have used in the present run.
 Note also that it will be of great value to readers of publications presenting these results,
 to read papers enabling them to understand the theoretical formalism and details
 of the ABINIT implementation.
 For information on why they are suggested, see also http://www.abinit.org/about/?text=acknowledgments.
-
- [1] Recent developments in the ABINIT software package
- X.Gonze, F.Jollet, F.Abreu Araujo, D.Adams, B.Amadon, T.Applencourt,
- C.Audouze, J.-M.Beuken, J.Bieder, A.Bokhanchuk, E.Bousquet, F.Bruneval
- D.Caliste, M.Cote, F.Dahm, F.Da Pieve, M.Delaveau, M.Di Gennaro,
- B.Dorado, C.Espejo, G.Geneste, L.Genovese, A.Gerossier, M.Giantomassi,
- Y.Gillet, D.R.Hamann, L.He, G.Jomard, J.Laflamme Janssen, S.Le Roux,
- A.Levitt, A.Lherbier, F.Liu, I.Lukacevic, A.Martin, C.Martins,
- M.J.T.Oliveira, S.Ponce, Y.Pouillon, T.Rangel, G.-M.Rignanese,
- A.H.Romero, B.Rousseau, O.Rubel, A.A.Shukri, M.Stankovski, M.Torrent,
- Comment : the fourth generic paper describing the ABINIT project.
- Note that a version of this paper, that is not formatted for Computer Phys. Comm. 
- is available at http://www.abinit.org/about/ABINIT16.pdf .
- The licence allows the authors to put it on the Web.
-
- [2] ABINIT : First-principles approach of materials and nanosystem properties.
- X. Gonze, B. Amadon, P.-M. Anglade, J.-M. Beuken, F. Bottin, P. Boulanger, F. Bruneval,
- D. Caliste, R. Caracas, M. Cote, T. Deutsch, L. Genovese, Ph. Ghosez, M. Giantomassi
- S. Goedecker, D.R. Hamann, P. Hermet, F. Jollet, G. Jomard, S. Leroux, M. Mancini, S. Mazevet,
- M.J.T. Oliveira, G. Onida, Y. Pouillon, T. Rangel, G.-M. Rignanese, D. Sangalli, R. Shaltaf,
- M. Torrent, M.J. Verstraete, G. Zerah, J.W. Zwanziger
- Computer Phys. Comm. 180, 2582-2615 (2009).
- Comment : the third generic paper describing the ABINIT project.
- Note that a version of this paper, that is not formatted for Computer Phys. Comm. 
- is available at http://www.abinit.org/about/ABINIT_CPC_v10.pdf .
- The licence allows the authors to put it on the Web.
-
- [3] A brief introduction to the ABINIT software package.
- X. Gonze, G.-M. Rignanese, M. Verstraete, J.-M. Beuken, Y. Pouillon, R. Caracas, F. Jollet,
- M. Torrent, G. Zerah, M. Mikami, Ph. Ghosez, M. Veithen, J.-Y. Raty, V. Olevano, F. Bruneval,
- L. Reining, R. Godby, G. Onida, D.R. Hamann, and D.C. Allan.
- Z. Kristallogr. 220, 558-562 (2005).
- Comment : the second generic paper describing the ABINIT project. Note that this paper
- should be cited especially if you are using the GW part of ABINIT, as several authors
- of this part are not in the list of authors of the first or third paper.
- The .pdf of the latter paper is available at http://www.abinit.org/about/zfk_0505-06_558-562.pdf.
- Note that it should not redistributed (Copyright by Oldenburg Wissenshaftverlag,
- the licence allows the authors to put it on the Web).
-
- And optionally:
-
- [4] First-principles computation of material properties : the ABINIT software project. 
- X. Gonze, J.-M. Beuken, R. Caracas, F. Detraux, M. Fuchs, G.-M. Rignanese, L. Sindic,
- M. Verstraete, G. Zerah, F. Jollet, M. Torrent, A. Roy, M. Mikami, Ph. Ghosez, J.-Y. Raty, D.C. Allan.
- Computational Materials Science 25, 478-492 (2002). http://dx.doi.org/10.1016/S0927-0256(02)00325-7
- Comment : the original paper describing the ABINIT project.
  Asked to delete not existent file: Si__STATUS
 Proc.   0 individual time (sec): cpu=       1717.7  wall=       1719.1

 Calculation completed.
.Delivered  42 WARNINGs and  32 COMMENTs to log file.

--- !FinalSummary
program: abinit
version: 8.0.7
start_datetime: Thu Apr 26 11:40:56 2018
end_datetime: Thu Apr 26 12:09:35 2018
overall_cpu_time:        1717.7
overall_wall_time:        1719.1
exit_requested_by_user: no 
timelimit: 0
pseudos: 
    Si  : 3916b143991b1cfa1542b130be320e5e
usepaw: 0
mpi_procs: 1
omp_threads: 1
num_warnings: 42
num_comments: 32
...
