
.Version 8.0.7 of ABINIT 
.(MPI version, prepared for a x86_64_linux_gnu4.9 computer) 

.Copyright (C) 1998-2016 ABINIT group . 
 ABINIT comes with ABSOLUTELY NO WARRANTY.
 It is free software, and you are welcome to redistribute it
 under certain conditions (GNU General Public License,
 see ~abinit/COPYING or http://www.gnu.org/copyleft/gpl.txt).

 ABINIT is a project of the Universite Catholique de Louvain,
 Corning Inc. and other collaborators, see ~abinit/doc/developers/contributors.txt .
 Please read ~abinit/doc/users/acknowledgments.html for suggested
 acknowledgments of the ABINIT effort.
 For more information, see http://www.abinit.org .

.Starting date : Thu 26 Apr 2018.
- ( at 11h40 )
  
- input  file    -> Si_in.txt
- output file    -> Si_out.txt
- root for input  files -> Si_i
- root for output files -> Si_o


 DATASET    1 : space group Fd -3 m (#227); Bravais cF (face-center cubic)
================================================================================
 Values of the parameters that define the memory need for DATASET  1.
     intxc =       0    ionmov =       3      iscf =       7    lmnmax =       2
     lnmax =       2     mgfft =      20  mpssoang =       3    mqgrid =    3001
     natom =       2  nloc_mem =       1    nspden =       1   nspinor =       1
    nsppol =       1      nsym =      48    n1xccc =    2501    ntypat =       1
    occopt =       1   xclevel =       1
-    mband =           5        mffmem =           1         mkmem =         110
       mpw =         336          nfft =        8000          nkpt =         110
================================================================================
P This job should need less than                       6.194 Mbytes of memory.
  Rough estimation (10% accuracy) of disk space for files :
_ WF disk file :      2.822 Mbytes ; DEN or POT disk file :      0.063 Mbytes.
================================================================================


 DATASET    2 : space group Fd -3 m (#227); Bravais cF (face-center cubic)
================================================================================
 Values of the parameters that define the memory need for DATASET  2.
     intxc =       0    ionmov =       3      iscf =       7    lmnmax =       2
     lnmax =       2     mgfft =      24  mpssoang =       3    mqgrid =    3001
     natom =       2  nloc_mem =       1    nspden =       1   nspinor =       1
    nsppol =       1      nsym =      48    n1xccc =    2501    ntypat =       1
    occopt =       1   xclevel =       1
-    mband =           5        mffmem =           1         mkmem =         110
       mpw =         477          nfft =       13824          nkpt =         110
================================================================================
P This job should need less than                       9.210 Mbytes of memory.
  Rough estimation (10% accuracy) of disk space for files :
_ WF disk file :      4.005 Mbytes ; DEN or POT disk file :      0.107 Mbytes.
================================================================================


 DATASET    3 : space group Fd -3 m (#227); Bravais cF (face-center cubic)
================================================================================
 Values of the parameters that define the memory need for DATASET  3.
     intxc =       0    ionmov =       3      iscf =       7    lmnmax =       2
     lnmax =       2     mgfft =      24  mpssoang =       3    mqgrid =    3001
     natom =       2  nloc_mem =       1    nspden =       1   nspinor =       1
    nsppol =       1      nsym =      48    n1xccc =    2501    ntypat =       1
    occopt =       1   xclevel =       1
-    mband =           5        mffmem =           1         mkmem =         110
       mpw =         616          nfft =       13824          nkpt =         110
================================================================================
P This job should need less than                      10.594 Mbytes of memory.
  Rough estimation (10% accuracy) of disk space for files :
_ WF disk file :      5.172 Mbytes ; DEN or POT disk file :      0.107 Mbytes.
================================================================================


 DATASET    4 : space group Fd -3 m (#227); Bravais cF (face-center cubic)
================================================================================
 Values of the parameters that define the memory need for DATASET  4.
     intxc =       0    ionmov =       3      iscf =       7    lmnmax =       2
     lnmax =       2     mgfft =      27  mpssoang =       3    mqgrid =    3001
     natom =       2  nloc_mem =       1    nspden =       1   nspinor =       1
    nsppol =       1      nsym =      48    n1xccc =    2501    ntypat =       1
    occopt =       1   xclevel =       1
-    mband =           5        mffmem =           1         mkmem =         110
       mpw =         775          nfft =       19683          nkpt =         110
================================================================================
P This job should need less than                      13.752 Mbytes of memory.
  Rough estimation (10% accuracy) of disk space for files :
_ WF disk file :      6.506 Mbytes ; DEN or POT disk file :      0.152 Mbytes.
================================================================================


 DATASET    5 : space group Fd -3 m (#227); Bravais cF (face-center cubic)
================================================================================
 Values of the parameters that define the memory need for DATASET  5.
     intxc =       0    ionmov =       3      iscf =       7    lmnmax =       2
     lnmax =       2     mgfft =      30  mpssoang =       3    mqgrid =    3001
     natom =       2  nloc_mem =       1    nspden =       1   nspinor =       1
    nsppol =       1      nsym =      48    n1xccc =    2501    ntypat =       1
    occopt =       1   xclevel =       1
-    mband =           5        mffmem =           1         mkmem =         110
       mpw =         948          nfft =       27000          nkpt =         110
================================================================================
P This job should need less than                      17.541 Mbytes of memory.
  Rough estimation (10% accuracy) of disk space for files :
_ WF disk file :      7.958 Mbytes ; DEN or POT disk file :      0.208 Mbytes.
================================================================================


 DATASET    6 : space group Fd -3 m (#227); Bravais cF (face-center cubic)
================================================================================
 Values of the parameters that define the memory need for DATASET  6.
     intxc =       0    ionmov =       3      iscf =       7    lmnmax =       2
     lnmax =       2     mgfft =      30  mpssoang =       3    mqgrid =    3001
     natom =       2  nloc_mem =       1    nspden =       1   nspinor =       1
    nsppol =       1      nsym =      48    n1xccc =    2501    ntypat =       1
    occopt =       1   xclevel =       1
-    mband =           5        mffmem =           1         mkmem =         110
       mpw =        1129          nfft =       27000          nkpt =         110
================================================================================
P This job should need less than                      19.344 Mbytes of memory.
  Rough estimation (10% accuracy) of disk space for files :
_ WF disk file :      9.477 Mbytes ; DEN or POT disk file :      0.208 Mbytes.
================================================================================


 DATASET    7 : space group Fd -3 m (#227); Bravais cF (face-center cubic)
================================================================================
 Values of the parameters that define the memory need for DATASET  7.
     intxc =       0    ionmov =       3      iscf =       7    lmnmax =       2
     lnmax =       2     mgfft =      32  mpssoang =       3    mqgrid =    3001
     natom =       2  nloc_mem =       1    nspden =       1   nspinor =       1
    nsppol =       1      nsym =      48    n1xccc =    2501    ntypat =       1
    occopt =       1   xclevel =       1
-    mband =           5        mffmem =           1         mkmem =         110
       mpw =        1323          nfft =       32768          nkpt =         110
================================================================================
P This job should need less than                      22.868 Mbytes of memory.
  Rough estimation (10% accuracy) of disk space for files :
_ WF disk file :     11.105 Mbytes ; DEN or POT disk file :      0.252 Mbytes.
================================================================================


 DATASET    8 : space group Fd -3 m (#227); Bravais cF (face-center cubic)
================================================================================
 Values of the parameters that define the memory need for DATASET  8.
     intxc =       0    ionmov =       3      iscf =       7    lmnmax =       2
     lnmax =       2     mgfft =      32  mpssoang =       3    mqgrid =    3001
     natom =       2  nloc_mem =       1    nspden =       1   nspinor =       1
    nsppol =       1      nsym =      48    n1xccc =    2501    ntypat =       1
    occopt =       1   xclevel =       1
-    mband =           5        mffmem =           1         mkmem =         110
       mpw =        1521          nfft =       32768          nkpt =         110
================================================================================
P This job should need less than                      24.841 Mbytes of memory.
  Rough estimation (10% accuracy) of disk space for files :
_ WF disk file :     12.767 Mbytes ; DEN or POT disk file :      0.252 Mbytes.
================================================================================


 DATASET    9 : space group Fd -3 m (#227); Bravais cF (face-center cubic)
================================================================================
 Values of the parameters that define the memory need for DATASET  9.
     intxc =       0    ionmov =       3      iscf =       7    lmnmax =       2
     lnmax =       2     mgfft =      36  mpssoang =       3    mqgrid =    3001
     natom =       2  nloc_mem =       1    nspden =       1   nspinor =       1
    nsppol =       1      nsym =      48    n1xccc =    2501    ntypat =       1
    occopt =       1   xclevel =       1
-    mband =           5        mffmem =           1         mkmem =         110
       mpw =        1736          nfft =       46656          nkpt =         110
================================================================================
P This job should need less than                      30.814 Mbytes of memory.
  Rough estimation (10% accuracy) of disk space for files :
_ WF disk file :     14.571 Mbytes ; DEN or POT disk file :      0.358 Mbytes.
================================================================================


 DATASET   10 : space group Fd -3 m (#227); Bravais cF (face-center cubic)
================================================================================
 Values of the parameters that define the memory need for DATASET 10.
     intxc =       0    ionmov =       3      iscf =       7    lmnmax =       2
     lnmax =       2     mgfft =      36  mpssoang =       3    mqgrid =    3001
     natom =       2  nloc_mem =       1    nspden =       1   nspinor =       1
    nsppol =       1      nsym =      48    n1xccc =    2501    ntypat =       1
    occopt =       1   xclevel =       1
-    mband =           5        mffmem =           1         mkmem =         110
       mpw =        1950          nfft =       46656          nkpt =         110
================================================================================
P This job should need less than                      32.945 Mbytes of memory.
  Rough estimation (10% accuracy) of disk space for files :
_ WF disk file :     16.367 Mbytes ; DEN or POT disk file :      0.358 Mbytes.
================================================================================


 DATASET   11 : space group Fd -3 m (#227); Bravais cF (face-center cubic)
================================================================================
 Values of the parameters that define the memory need for DATASET 11.
     intxc =       0    ionmov =       3      iscf =       7    lmnmax =       2
     lnmax =       2     mgfft =      40  mpssoang =       3    mqgrid =    3001
     natom =       2  nloc_mem =       1    nspden =       1   nspinor =       1
    nsppol =       1      nsym =      48    n1xccc =    2501    ntypat =       1
    occopt =       1   xclevel =       1
-    mband =           5        mffmem =           1         mkmem =         110
       mpw =        2178          nfft =       64000          nkpt =         110
================================================================================
P This job should need less than                      39.999 Mbytes of memory.
  Rough estimation (10% accuracy) of disk space for files :
_ WF disk file :     18.281 Mbytes ; DEN or POT disk file :      0.490 Mbytes.
================================================================================


 DATASET   12 : space group Fd -3 m (#227); Bravais cF (face-center cubic)
================================================================================
 Values of the parameters that define the memory need for DATASET 12.
     intxc =       0    ionmov =       3      iscf =       7    lmnmax =       2
     lnmax =       2     mgfft =      40  mpssoang =       3    mqgrid =    3001
     natom =       2  nloc_mem =       1    nspden =       1   nspinor =       1
    nsppol =       1      nsym =      48    n1xccc =    2501    ntypat =       1
    occopt =       1   xclevel =       1
-    mband =           5        mffmem =           1         mkmem =         110
       mpw =        2418          nfft =       64000          nkpt =         110
================================================================================
P This job should need less than                      42.390 Mbytes of memory.
  Rough estimation (10% accuracy) of disk space for files :
_ WF disk file :     20.295 Mbytes ; DEN or POT disk file :      0.490 Mbytes.
================================================================================


 DATASET   13 : space group Fd -3 m (#227); Bravais cF (face-center cubic)
================================================================================
 Values of the parameters that define the memory need for DATASET 13.
     intxc =       0    ionmov =       3      iscf =       7    lmnmax =       2
     lnmax =       2     mgfft =      40  mpssoang =       3    mqgrid =    3001
     natom =       2  nloc_mem =       1    nspden =       1   nspinor =       1
    nsppol =       1      nsym =      48    n1xccc =    2501    ntypat =       1
    occopt =       1   xclevel =       1
-    mband =           5        mffmem =           1         mkmem =         110
       mpw =        2682          nfft =       64000          nkpt =         110
================================================================================
P This job should need less than                      45.019 Mbytes of memory.
  Rough estimation (10% accuracy) of disk space for files :
_ WF disk file :     22.510 Mbytes ; DEN or POT disk file :      0.490 Mbytes.
================================================================================


 DATASET   14 : space group Fd -3 m (#227); Bravais cF (face-center cubic)
================================================================================
 Values of the parameters that define the memory need for DATASET 14.
     intxc =       0    ionmov =       3      iscf =       7    lmnmax =       2
     lnmax =       2     mgfft =      40  mpssoang =       3    mqgrid =    3001
     natom =       2  nloc_mem =       1    nspden =       1   nspinor =       1
    nsppol =       1      nsym =      48    n1xccc =    2501    ntypat =       1
    occopt =       1   xclevel =       1
-    mband =           5        mffmem =           1         mkmem =         110
       mpw =        2904          nfft =       64000          nkpt =         110
================================================================================
P This job should need less than                      47.230 Mbytes of memory.
  Rough estimation (10% accuracy) of disk space for files :
_ WF disk file :     24.373 Mbytes ; DEN or POT disk file :      0.490 Mbytes.
================================================================================


 DATASET   15 : space group Fd -3 m (#227); Bravais cF (face-center cubic)
================================================================================
 Values of the parameters that define the memory need for DATASET 15.
     intxc =       0    ionmov =       3      iscf =       7    lmnmax =       2
     lnmax =       2     mgfft =      45  mpssoang =       3    mqgrid =    3001
     natom =       2  nloc_mem =       1    nspden =       1   nspinor =       1
    nsppol =       1      nsym =      48    n1xccc =    2501    ntypat =       1
    occopt =       1   xclevel =       1
-    mband =           5        mffmem =           1         mkmem =         110
       mpw =        3168          nfft =       91125          nkpt =         110
================================================================================
P This job should need less than                      57.212 Mbytes of memory.
  Rough estimation (10% accuracy) of disk space for files :
_ WF disk file :     26.589 Mbytes ; DEN or POT disk file :      0.697 Mbytes.
================================================================================


 DATASET   16 : space group Fd -3 m (#227); Bravais cF (face-center cubic)
================================================================================
 Values of the parameters that define the memory need for DATASET 16.
     intxc =       0    ionmov =       3      iscf =       7    lmnmax =       2
     lnmax =       2     mgfft =      45  mpssoang =       3    mqgrid =    3001
     natom =       2  nloc_mem =       1    nspden =       1   nspinor =       1
    nsppol =       1      nsym =      48    n1xccc =    2501    ntypat =       1
    occopt =       1   xclevel =       1
-    mband =           5        mffmem =           1         mkmem =         110
       mpw =        3449          nfft =       91125          nkpt =         110
================================================================================
P This job should need less than                      60.011 Mbytes of memory.
  Rough estimation (10% accuracy) of disk space for files :
_ WF disk file :     28.947 Mbytes ; DEN or POT disk file :      0.697 Mbytes.
================================================================================


 DATASET   17 : space group Fd -3 m (#227); Bravais cF (face-center cubic)
================================================================================
 Values of the parameters that define the memory need for DATASET 17.
     intxc =       0    ionmov =       3      iscf =       7    lmnmax =       2
     lnmax =       2     mgfft =      45  mpssoang =       3    mqgrid =    3001
     natom =       2  nloc_mem =       1    nspden =       1   nspinor =       1
    nsppol =       1      nsym =      48    n1xccc =    2501    ntypat =       1
    occopt =       1   xclevel =       1
-    mband =           5        mffmem =           1         mkmem =         110
       mpw =        3708          nfft =       91125          nkpt =         110
================================================================================
P This job should need less than                      62.591 Mbytes of memory.
  Rough estimation (10% accuracy) of disk space for files :
_ WF disk file :     31.121 Mbytes ; DEN or POT disk file :      0.697 Mbytes.
================================================================================


 DATASET   18 : space group Fd -3 m (#227); Bravais cF (face-center cubic)
================================================================================
 Values of the parameters that define the memory need for DATASET 18.
     intxc =       0    ionmov =       3      iscf =       7    lmnmax =       2
     lnmax =       2     mgfft =      48  mpssoang =       3    mqgrid =    3001
     natom =       2  nloc_mem =       1    nspden =       1   nspinor =       1
    nsppol =       1      nsym =      48    n1xccc =    2501    ntypat =       1
    occopt =       1   xclevel =       1
-    mband =           5        mffmem =           1         mkmem =         110
       mpw =        3992          nfft =      110592          nkpt =         110
================================================================================
P This job should need less than                      70.909 Mbytes of memory.
  Rough estimation (10% accuracy) of disk space for files :
_ WF disk file :     33.504 Mbytes ; DEN or POT disk file :      0.846 Mbytes.
================================================================================


 DATASET   19 : space group Fd -3 m (#227); Bravais cF (face-center cubic)
================================================================================
 Values of the parameters that define the memory need for DATASET 19.
     intxc =       0    ionmov =       3      iscf =       7    lmnmax =       2
     lnmax =       2     mgfft =      48  mpssoang =       3    mqgrid =    3001
     natom =       2  nloc_mem =       1    nspden =       1   nspinor =       1
    nsppol =       1      nsym =      48    n1xccc =    2501    ntypat =       1
    occopt =       1   xclevel =       1
-    mband =           5        mffmem =           1         mkmem =         110
       mpw =        4282          nfft =      110592          nkpt =         110
================================================================================
P This job should need less than                      73.797 Mbytes of memory.
  Rough estimation (10% accuracy) of disk space for files :
_ WF disk file :     35.938 Mbytes ; DEN or POT disk file :      0.846 Mbytes.
================================================================================


 DATASET   20 : space group Fd -3 m (#227); Bravais cF (face-center cubic)
================================================================================
 Values of the parameters that define the memory need for DATASET 20.
     intxc =       0    ionmov =       3      iscf =       7    lmnmax =       2
     lnmax =       2     mgfft =      48  mpssoang =       3    mqgrid =    3001
     natom =       2  nloc_mem =       1    nspden =       1   nspinor =       1
    nsppol =       1      nsym =      48    n1xccc =    2501    ntypat =       1
    occopt =       1   xclevel =       1
-    mband =           5        mffmem =           1         mkmem =         110
       mpw =        4582          nfft =      110592          nkpt =         110
================================================================================
P This job should need less than                      76.785 Mbytes of memory.
  Rough estimation (10% accuracy) of disk space for files :
_ WF disk file :     38.456 Mbytes ; DEN or POT disk file :      0.846 Mbytes.
================================================================================


 DATASET   21 : space group Fd -3 m (#227); Bravais cF (face-center cubic)
================================================================================
 Values of the parameters that define the memory need for DATASET 21.
     intxc =       0    ionmov =       3      iscf =       7    lmnmax =       2
     lnmax =       2     mgfft =      48  mpssoang =       3    mqgrid =    3001
     natom =       2  nloc_mem =       1    nspden =       1   nspinor =       1
    nsppol =       1      nsym =      48    n1xccc =    2501    ntypat =       1
    occopt =       1   xclevel =       1
-    mband =           5        mffmem =           1         mkmem =         110
       mpw =        4903          nfft =      110592          nkpt =         110
================================================================================
P This job should need less than                      79.982 Mbytes of memory.
  Rough estimation (10% accuracy) of disk space for files :
_ WF disk file :     41.150 Mbytes ; DEN or POT disk file :      0.846 Mbytes.
================================================================================


 DATASET   22 : space group Fd -3 m (#227); Bravais cF (face-center cubic)
================================================================================
 Values of the parameters that define the memory need for DATASET 22.
     intxc =       0    ionmov =       3      iscf =       7    lmnmax =       2
     lnmax =       2     mgfft =      50  mpssoang =       3    mqgrid =    3001
     natom =       2  nloc_mem =       1    nspden =       1   nspinor =       1
    nsppol =       1      nsym =      48    n1xccc =    2501    ntypat =       1
    occopt =       1   xclevel =       1
-    mband =           5        mffmem =           1         mkmem =         110
       mpw =        5173          nfft =      125000          nkpt =         110
================================================================================
P This job should need less than                      86.641 Mbytes of memory.
  Rough estimation (10% accuracy) of disk space for files :
_ WF disk file :     43.416 Mbytes ; DEN or POT disk file :      0.956 Mbytes.
================================================================================

--------------------------------------------------------------------------------
------------- Echo of variables that govern the present computation ------------
--------------------------------------------------------------------------------
-
- outvars: echo of selected default values                                      
-   iomode0 =  0 , fftalg0 =112 , wfoptalg0 =  0
-
- outvars: echo of global parameters not present in the input file              
-  max_nthreads =    0
-
 -outvars: echo values of preprocessed input variables --------
            acell      1.0180000000E+01  1.0180000000E+01  1.0180000000E+01 Bohr
              amu      2.80855000E+01
           diemac      1.20000000E+01
          dilatmx      1.05000000E+00
             ecut1     8.00000000E+00 Hartree
             ecut2     1.00000000E+01 Hartree
             ecut3     1.20000000E+01 Hartree
             ecut4     1.40000000E+01 Hartree
             ecut5     1.60000000E+01 Hartree
             ecut6     1.80000000E+01 Hartree
             ecut7     2.00000000E+01 Hartree
             ecut8     2.20000000E+01 Hartree
             ecut9     2.40000000E+01 Hartree
             ecut10    2.60000000E+01 Hartree
             ecut11    2.80000000E+01 Hartree
             ecut12    3.00000000E+01 Hartree
             ecut13    3.20000000E+01 Hartree
             ecut14    3.40000000E+01 Hartree
             ecut15    3.60000000E+01 Hartree
             ecut16    3.80000000E+01 Hartree
             ecut17    4.00000000E+01 Hartree
             ecut18    4.20000000E+01 Hartree
             ecut19    4.40000000E+01 Hartree
             ecut20    4.60000000E+01 Hartree
             ecut21    4.80000000E+01 Hartree
             ecut22    5.00000000E+01 Hartree
           ecutsm      5.00000000E-01 Hartree
-          fftalg         112
           getwfk          -1
           ionmov           3
           jdtset        1    2    3    4    5    6    7    8    9   10
                        11   12   13   14   15   16   17   18   19   20
                        21   22
              kpt     -5.00000000E-02 -1.00000000E-01  0.00000000E+00
                      -5.00000000E-02 -2.00000000E-01  0.00000000E+00
                      -1.00000000E-01 -1.50000000E-01  0.00000000E+00
                      -5.00000000E-02 -1.50000000E-01  5.00000000E-02
                      -5.00000000E-02 -3.00000000E-01  0.00000000E+00
                      -1.00000000E-01 -2.50000000E-01  0.00000000E+00
                      -5.00000000E-02 -2.50000000E-01  5.00000000E-02
                      -1.50000000E-01 -2.00000000E-01  0.00000000E+00
                      -1.00000000E-01 -2.00000000E-01  5.00000000E-02
                      -5.00000000E-02 -2.00000000E-01  1.00000000E-01
                      -5.00000000E-02 -4.00000000E-01  0.00000000E+00
                      -1.00000000E-01 -3.50000000E-01  0.00000000E+00
                      -5.00000000E-02 -3.50000000E-01  5.00000000E-02
                      -1.50000000E-01 -3.00000000E-01  0.00000000E+00
                      -1.00000000E-01 -3.00000000E-01  5.00000000E-02
                      -5.00000000E-02 -3.00000000E-01  1.00000000E-01
                      -2.00000000E-01 -2.50000000E-01  0.00000000E+00
                      -1.50000000E-01 -2.50000000E-01  5.00000000E-02
                      -1.00000000E-01 -2.50000000E-01  1.00000000E-01
                      -5.00000000E-02 -2.50000000E-01  1.50000000E-01
                      -5.00000000E-02  5.00000000E-01  0.00000000E+00
                      -1.00000000E-01 -4.50000000E-01  0.00000000E+00
                      -5.00000000E-02 -4.50000000E-01  5.00000000E-02
                      -1.50000000E-01 -4.00000000E-01  0.00000000E+00
                      -1.00000000E-01 -4.00000000E-01  5.00000000E-02
                      -5.00000000E-02 -4.00000000E-01  1.00000000E-01
                      -2.00000000E-01 -3.50000000E-01  0.00000000E+00
                      -1.50000000E-01 -3.50000000E-01  5.00000000E-02
                      -1.00000000E-01 -3.50000000E-01  1.00000000E-01
                      -5.00000000E-02 -3.50000000E-01  1.50000000E-01
                      -2.50000000E-01 -3.00000000E-01  0.00000000E+00
                      -2.00000000E-01 -3.00000000E-01  5.00000000E-02
                      -1.50000000E-01 -3.00000000E-01  1.00000000E-01
                      -1.00000000E-01 -3.00000000E-01  1.50000000E-01
                      -5.00000000E-02 -3.00000000E-01  2.00000000E-01
                      -5.00000000E-02  4.00000000E-01  0.00000000E+00
                      -1.00000000E-01  4.50000000E-01  0.00000000E+00
                      -1.50000000E-01  5.00000000E-01  0.00000000E+00
                      -1.00000000E-01  5.00000000E-01  5.00000000E-02
                      -2.00000000E-01 -4.50000000E-01  0.00000000E+00
                      -1.50000000E-01 -4.50000000E-01  5.00000000E-02
                      -1.00000000E-01 -4.50000000E-01  1.00000000E-01
                      -5.00000000E-02 -4.50000000E-01  1.50000000E-01
                      -2.50000000E-01 -4.00000000E-01  0.00000000E+00
                      -2.00000000E-01 -4.00000000E-01  5.00000000E-02
                      -1.50000000E-01 -4.00000000E-01  1.00000000E-01
                      -1.00000000E-01 -4.00000000E-01  1.50000000E-01
                      -5.00000000E-02 -4.00000000E-01  2.00000000E-01
                      -3.00000000E-01 -3.50000000E-01  0.00000000E+00
                      -2.50000000E-01 -3.50000000E-01  5.00000000E-02
                       outvar_i_n : Printing only first  50 k-points.
         kptrlatt       10  -10   10    -10   10   10    -10  -10   10
          kptrlen      1.01800000E+02
P           mkmem         110
            natom           2
            nband           5
           ndtset          22
            ngfft1         20      20      20
            ngfft2         24      24      24
            ngfft3         24      24      24
            ngfft4         27      27      27
            ngfft5         30      30      30
            ngfft6         30      30      30
            ngfft7         32      32      32
            ngfft8         32      32      32
            ngfft9         36      36      36
            ngfft10        36      36      36
            ngfft11        40      40      40
            ngfft12        40      40      40
            ngfft13        40      40      40
            ngfft14        40      40      40
            ngfft15        45      45      45
            ngfft16        45      45      45
            ngfft17        45      45      45
            ngfft18        48      48      48
            ngfft19        48      48      48
            ngfft20        48      48      48
            ngfft21        48      48      48
            ngfft22        50      50      50
             nkpt         110
            nstep          10
             nsym          48
            ntime          10
           ntypat           1
              occ      2.000000  2.000000  2.000000  2.000000  0.000000
          optcell           1
            rprim      0.0000000000E+00  5.0000000000E-01  5.0000000000E-01
                       5.0000000000E-01  0.0000000000E+00  5.0000000000E-01
                       5.0000000000E-01  5.0000000000E-01  0.0000000000E+00
           shiftk      5.00000000E-01  5.00000000E-01  5.00000000E-01
          spgroup         227
           symrel      1  0  0   0  1  0   0  0  1      -1  0  0   0 -1  0   0  0 -1
                       0 -1  1   0 -1  0   1 -1  0       0  1 -1   0  1  0  -1  1  0
                      -1  0  0  -1  0  1  -1  1  0       1  0  0   1  0 -1   1 -1  0
                       0  1 -1   1  0 -1   0  0 -1       0 -1  1  -1  0  1   0  0  1
                      -1  0  0  -1  1  0  -1  0  1       1  0  0   1 -1  0   1  0 -1
                       0 -1  1   1 -1  0   0 -1  0       0  1 -1  -1  1  0   0  1  0
                       1  0  0   0  0  1   0  1  0      -1  0  0   0  0 -1   0 -1  0
                       0  1 -1   0  0 -1   1  0 -1       0 -1  1   0  0  1  -1  0  1
                      -1  0  1  -1  1  0  -1  0  0       1  0 -1   1 -1  0   1  0  0
                       0 -1  0   1 -1  0   0 -1  1       0  1  0  -1  1  0   0  1 -1
                       1  0 -1   0  0 -1   0  1 -1      -1  0  1   0  0  1   0 -1  1
                       0  1  0   0  0  1   1  0  0       0 -1  0   0  0 -1  -1  0  0
                       1  0 -1   0  1 -1   0  0 -1      -1  0  1   0 -1  1   0  0  1
                       0 -1  0   0 -1  1   1 -1  0       0  1  0   0  1 -1  -1  1  0
                      -1  0  1  -1  0  0  -1  1  0       1  0 -1   1  0  0   1 -1  0
                       0  1  0   1  0  0   0  0  1       0 -1  0  -1  0  0   0  0 -1
                       0  0 -1   0  1 -1   1  0 -1       0  0  1   0 -1  1  -1  0  1
                       1 -1  0   0 -1  1   0 -1  0      -1  1  0   0  1 -1   0  1  0
                       0  0  1   1  0  0   0  1  0       0  0 -1  -1  0  0   0 -1  0
                      -1  1  0  -1  0  0  -1  0  1       1 -1  0   1  0  0   1  0 -1
                       0  0  1   0  1  0   1  0  0       0  0 -1   0 -1  0  -1  0  0
                       1 -1  0   0 -1  0   0 -1  1      -1  1  0   0  1  0   0  1 -1
                       0  0 -1   1  0 -1   0  1 -1       0  0  1  -1  0  1   0 -1  1
                      -1  1  0  -1  0  1  -1  0  0       1 -1  0   1  0 -1   1  0  0
            tnons      0.0000000  0.0000000  0.0000000     0.2500000  0.2500000  0.2500000
                       0.0000000  0.0000000  0.0000000     0.2500000  0.2500000  0.2500000
                       0.0000000  0.0000000  0.0000000     0.2500000  0.2500000  0.2500000
                       0.0000000  0.0000000  0.0000000     0.2500000  0.2500000  0.2500000
                       0.0000000  0.0000000  0.0000000     0.2500000  0.2500000  0.2500000
                       0.0000000  0.0000000  0.0000000     0.2500000  0.2500000  0.2500000
                       0.0000000  0.0000000  0.0000000     0.2500000  0.2500000  0.2500000
                       0.0000000  0.0000000  0.0000000     0.2500000  0.2500000  0.2500000
                       0.0000000  0.0000000  0.0000000     0.2500000  0.2500000  0.2500000
                       0.0000000  0.0000000  0.0000000     0.2500000  0.2500000  0.2500000
                       0.0000000  0.0000000  0.0000000     0.2500000  0.2500000  0.2500000
                       0.0000000  0.0000000  0.0000000     0.2500000  0.2500000  0.2500000
                       0.0000000  0.0000000  0.0000000     0.2500000  0.2500000  0.2500000
                       0.0000000  0.0000000  0.0000000     0.2500000  0.2500000  0.2500000
                       0.0000000  0.0000000  0.0000000     0.2500000  0.2500000  0.2500000
                       0.0000000  0.0000000  0.0000000     0.2500000  0.2500000  0.2500000
                       0.0000000  0.0000000  0.0000000     0.2500000  0.2500000  0.2500000
                       0.0000000  0.0000000  0.0000000     0.2500000  0.2500000  0.2500000
                       0.0000000  0.0000000  0.0000000     0.2500000  0.2500000  0.2500000
                       0.0000000  0.0000000  0.0000000     0.2500000  0.2500000  0.2500000
                       0.0000000  0.0000000  0.0000000     0.2500000  0.2500000  0.2500000
                       0.0000000  0.0000000  0.0000000     0.2500000  0.2500000  0.2500000
                       0.0000000  0.0000000  0.0000000     0.2500000  0.2500000  0.2500000
                       0.0000000  0.0000000  0.0000000     0.2500000  0.2500000  0.2500000
           toldfe      1.00000000E-06 Hartree
            typat      1  1
              wtk        0.00600    0.00600    0.00600    0.01200    0.00600    0.00600
                         0.01200    0.00600    0.01200    0.01200    0.00600    0.00600
                         0.01200    0.00600    0.01200    0.01200    0.00600    0.01200
                         0.01200    0.01200    0.00600    0.00600    0.01200    0.00600
                         0.01200    0.01200    0.00600    0.01200    0.01200    0.01200
                         0.00600    0.01200    0.01200    0.01200    0.01200    0.00600
                         0.00600    0.00600    0.01200    0.00600    0.01200    0.01200
                         0.01200    0.00600    0.01200    0.01200    0.01200    0.01200
                         0.00600    0.01200
                       outvars : Printing only first  50 k-points.
           xangst      0.0000000000E+00  0.0000000000E+00  0.0000000000E+00
                       1.3467559959E+00  1.3467559959E+00  1.3467559959E+00
            xcart      0.0000000000E+00  0.0000000000E+00  0.0000000000E+00
                       2.5450000000E+00  2.5450000000E+00  2.5450000000E+00
             xred      0.0000000000E+00  0.0000000000E+00  0.0000000000E+00
                       2.5000000000E-01  2.5000000000E-01  2.5000000000E-01
            znucl       14.00000

================================================================================

 chkinp: Checking input parameters for consistency, jdtset=   1.

 chkinp: Checking input parameters for consistency, jdtset=   2.

 chkinp: Checking input parameters for consistency, jdtset=   3.

 chkinp: Checking input parameters for consistency, jdtset=   4.

 chkinp: Checking input parameters for consistency, jdtset=   5.

 chkinp: Checking input parameters for consistency, jdtset=   6.

 chkinp: Checking input parameters for consistency, jdtset=   7.

 chkinp: Checking input parameters for consistency, jdtset=   8.

 chkinp: Checking input parameters for consistency, jdtset=   9.

 chkinp: Checking input parameters for consistency, jdtset=  10.

 chkinp: Checking input parameters for consistency, jdtset=  11.

 chkinp: Checking input parameters for consistency, jdtset=  12.

 chkinp: Checking input parameters for consistency, jdtset=  13.

 chkinp: Checking input parameters for consistency, jdtset=  14.

 chkinp: Checking input parameters for consistency, jdtset=  15.

 chkinp: Checking input parameters for consistency, jdtset=  16.

 chkinp: Checking input parameters for consistency, jdtset=  17.

 chkinp: Checking input parameters for consistency, jdtset=  18.

 chkinp: Checking input parameters for consistency, jdtset=  19.

 chkinp: Checking input parameters for consistency, jdtset=  20.

 chkinp: Checking input parameters for consistency, jdtset=  21.

 chkinp: Checking input parameters for consistency, jdtset=  22.

================================================================================
== DATASET  1 ==================================================================
-   nproc =    1

 Exchange-correlation functional for the present dataset will be:
  LDA: new Teter (4/93) with spin-polarized option - ixc=1
 Citation for XC functional:
  S. Goedecker, M. Teter, J. Huetter, PRB 54, 1703 (1996)

 Real(R)+Recip(G) space primitive vectors, cartesian coordinates (Bohr,Bohr^-1):
 R(1)=  0.0000000  5.0900000  5.0900000  G(1)= -0.0982318  0.0982318  0.0982318
 R(2)=  5.0900000  0.0000000  5.0900000  G(2)=  0.0982318 -0.0982318  0.0982318
 R(3)=  5.0900000  5.0900000  0.0000000  G(3)=  0.0982318  0.0982318 -0.0982318
 Unit cell volume ucvol=  2.6374446E+02 bohr^3
 Angles (23,13,12)=  6.00000000E+01  6.00000000E+01  6.00000000E+01 degrees

 getcut: wavevector=  0.0000  0.0000  0.0000  ngfft=  20  20  20
         ecut(hartree)=      8.820   => boxcut(ratio)=   2.07825

--- Pseudopotential description ------------------------------------------------
- pspini: atom type   1  psp file is 14si.txt
- pspatm: opening atomic psp file    14si.txt
-  Troullier-Martins psp for element  Si        Thu Oct 27 17:31:21 EDT 1994
- 14.00000   4.00000    940714                znucl, zion, pspdat
    1    1    2    2      2001   0.00000      pspcod,pspxc,lmax,lloc,mmax,r2well
    0   5.907  14.692    1   2.0872718        l,e99.0,e99.9,nproj,rcpsp
   0.00000000   0.00000000   0.00000000   0.00000000     rms, ekb1, ekb2, epsatm
    1   2.617   4.181    1   2.0872718        l,e99.0,e99.9,nproj,rcpsp
   0.00000000   0.00000000   0.00000000   0.00000000     rms, ekb1, ekb2, epsatm
    2   0.000   0.000    0   2.0872718        l,e99.0,e99.9,nproj,rcpsp
   0.00000000   0.00000000   0.00000000   0.00000000     rms, ekb1, ekb2, epsatm
    1.80626423934776    0.22824404341771    1.17378968127746   rchrg,fchrg,qchrg
 pspatm: epsatm=    1.43386982
         --- l  ekb(1:nproj) -->
             0    3.287949
             1    1.849886
 pspatm: atomic psp has been read  and splines computed

   2.29419171E+01                                ecore*ucvol(ha*bohr**3)
--------------------------------------------------------------------------------

_setup2: Arith. and geom. avg. npw (full set) are     329.976     329.964

================================================================================

=== [ionmov= 3] Broyden-Fletcher-Goldfard-Shanno method (forces,Tot energy) 
================================================================================

--- Iteration: ( 1/10) Internal Cycle: (1/1)
--------------------------------------------------------------------------------

---SELF-CONSISTENT-FIELD CONVERGENCE--------------------------------------------

     iter   Etot(hartree)      deltaE(h)  residm     vres2
 ETOT  1  -8.8665918393807    -8.867E+00 2.002E-02 5.917E+00
 ETOT  2  -8.8721997932359    -5.608E-03 7.350E-04 1.511E-01
 ETOT  3  -8.8722723865487    -7.259E-05 2.495E-04 3.028E-03
 ETOT  4  -8.8722733371767    -9.506E-07 3.244E-05 1.204E-05
 ETOT  5  -8.8722733424291    -5.252E-09 2.296E-05 1.535E-08

 At SCF step    5, etot is converged : 
  for the second time, diff in etot=  5.252E-09 < toldfe=  1.000E-06

 Cartesian components of stress tensor (hartree/bohr^3)
  sigma(1 1)= -3.59558062E-05  sigma(3 2)=  0.00000000E+00
  sigma(2 2)= -3.59558062E-05  sigma(3 1)=  0.00000000E+00
  sigma(3 3)= -3.59558062E-05  sigma(2 1)=  0.00000000E+00

 Integrated electronic density in atomic spheres:
 ------------------------------------------------
 Atom  Sphere_radius  Integrated_density
    1        2.00000          1.70576554
    2        2.00000          1.70576554

---OUTPUT-----------------------------------------------------------------------

 Cartesian coordinates (xcart) [bohr]
  0.00000000000000E+00  0.00000000000000E+00  0.00000000000000E+00
  2.54500000000000E+00  2.54500000000000E+00  2.54500000000000E+00
 Reduced coordinates (xred)
  0.00000000000000E+00  0.00000000000000E+00  0.00000000000000E+00
  2.50000000000000E-01  2.50000000000000E-01  2.50000000000000E-01
 Cartesian forces (fcart) [Ha/bohr]; max,rms= 0.00000E+00 0.00000E+00 (free atoms)
 -0.00000000000000E+00 -0.00000000000000E+00 -0.00000000000000E+00
 -0.00000000000000E+00 -0.00000000000000E+00 -0.00000000000000E+00
 Reduced forces (fred)
  0.00000000000000E+00  0.00000000000000E+00  0.00000000000000E+00
  0.00000000000000E+00  0.00000000000000E+00  0.00000000000000E+00
 Scale of Primitive Cell (acell) [bohr]
  1.01800000000000E+01  1.01800000000000E+01  1.01800000000000E+01
 Real space primitive translations (rprimd) [bohr]
  0.00000000000000E+00  5.09000000000000E+00  5.09000000000000E+00
  5.09000000000000E+00  0.00000000000000E+00  5.09000000000000E+00
  5.09000000000000E+00  5.09000000000000E+00  0.00000000000000E+00
 Unitary Cell Volume (ucvol) [Bohr^3]=  2.63744458000000E+02
 Angles (23,13,12)= [degrees]
  6.00000000000000E+01  6.00000000000000E+01  6.00000000000000E+01
 Lengths [Bohr]
  7.19834703247905E+00  7.19834703247905E+00  7.19834703247905E+00
 Stress tensor in cartesian coordinates (strten) [Ha/bohr^3]
 -3.59558061879304E-05  0.00000000000000E+00  0.00000000000000E+00
  0.00000000000000E+00 -3.59558061879304E-05  0.00000000000000E+00
  0.00000000000000E+00  0.00000000000000E+00 -3.59558061879304E-05
 Total energy (etotal) [Ha]= -8.87227334242912E+00

--- Iteration: ( 2/10) Internal Cycle: (1/1)
--------------------------------------------------------------------------------

---SELF-CONSISTENT-FIELD CONVERGENCE--------------------------------------------

     iter   Etot(hartree)      deltaE(h)  residm     vres2
 ETOT  1  -8.8722979934889    -8.872E+00 2.537E-05 1.750E-03
 ETOT  2  -8.8722992110722    -1.218E-06 6.186E-06 5.208E-05
 ETOT  3  -8.8722992346167    -2.354E-08 1.533E-06 8.628E-07
 ETOT  4  -8.8722992348906    -2.740E-10 4.130E-06 9.550E-10

 At SCF step    4, etot is converged : 
  for the second time, diff in etot=  2.740E-10 < toldfe=  1.000E-06

 Cartesian components of stress tensor (hartree/bohr^3)
  sigma(1 1)= -2.46711987E-05  sigma(3 2)=  0.00000000E+00
  sigma(2 2)= -2.46711987E-05  sigma(3 1)=  0.00000000E+00
  sigma(3 3)= -2.46711987E-05  sigma(2 1)=  0.00000000E+00

 Integrated electronic density in atomic spheres:
 ------------------------------------------------
 Atom  Sphere_radius  Integrated_density
    1        2.00000          1.70860794
    2        2.00000          1.70860794

---OUTPUT-----------------------------------------------------------------------

 Cartesian coordinates (xcart) [bohr]
  0.00000000000000E+00  0.00000000000000E+00  0.00000000000000E+00
  2.54774522580245E+00  2.54774522580245E+00  2.54774522580245E+00
 Reduced coordinates (xred)
  0.00000000000000E+00  0.00000000000000E+00  0.00000000000000E+00
  2.50000000000000E-01  2.50000000000000E-01  2.50000000000000E-01
 Cartesian forces (fcart) [Ha/bohr]; max,rms= 0.00000E+00 0.00000E+00 (free atoms)
 -0.00000000000000E+00 -0.00000000000000E+00 -0.00000000000000E+00
 -0.00000000000000E+00 -0.00000000000000E+00 -0.00000000000000E+00
 Reduced forces (fred)
  0.00000000000000E+00  0.00000000000000E+00  0.00000000000000E+00
  0.00000000000000E+00  0.00000000000000E+00  0.00000000000000E+00
 Scale of Primitive Cell (acell) [bohr]
  1.01909809032098E+01  1.01909809032098E+01  1.01909809032098E+01
 Real space primitive translations (rprimd) [bohr]
  0.00000000000000E+00  5.09549045160490E+00  5.09549045160490E+00
  5.09549045160490E+00  0.00000000000000E+00  5.09549045160490E+00
  5.09549045160490E+00  5.09549045160490E+00  0.00000000000000E+00
 Unitary Cell Volume (ucvol) [Bohr^3]=  2.64598861976465E+02
 Angles (23,13,12)= [degrees]
  6.00000000000000E+01  6.00000000000000E+01  6.00000000000000E+01
 Lengths [Bohr]
  7.20611170360225E+00  7.20611170360225E+00  7.20611170360225E+00
 Stress tensor in cartesian coordinates (strten) [Ha/bohr^3]
 -2.46711987327224E-05  0.00000000000000E+00  0.00000000000000E+00
  0.00000000000000E+00 -2.46711987327225E-05  0.00000000000000E+00
  0.00000000000000E+00  0.00000000000000E+00 -2.46711987327226E-05
 Total energy (etotal) [Ha]= -8.87229923489065E+00

 Difference of energy with previous step (new-old):
           Absolute (Ha)=-2.58925E-05
           Relative     =-2.91835E-06

--- Iteration: ( 3/10) Internal Cycle: (1/1)
--------------------------------------------------------------------------------

---SELF-CONSISTENT-FIELD CONVERGENCE--------------------------------------------

     iter   Etot(hartree)      deltaE(h)  residm     vres2
 ETOT  1  -8.8723162703438    -8.872E+00 1.391E-05 9.086E-03
 ETOT  2  -8.8723226077001    -6.337E-06 6.799E-06 2.752E-04
 ETOT  3  -8.8723227327119    -1.250E-07 3.136E-06 4.561E-06
 ETOT  4  -8.8723227341607    -1.449E-09 5.767E-06 5.051E-09

 At SCF step    4, etot is converged : 
  for the second time, diff in etot=  1.449E-09 < toldfe=  1.000E-06

 Cartesian components of stress tensor (hartree/bohr^3)
  sigma(1 1)=  3.98073620E-07  sigma(3 2)=  0.00000000E+00
  sigma(2 2)=  3.98073620E-07  sigma(3 1)=  0.00000000E+00
  sigma(3 3)=  3.98073620E-07  sigma(2 1)=  0.00000000E+00

 Integrated electronic density in atomic spheres:
 ------------------------------------------------
 Atom  Sphere_radius  Integrated_density
    1        2.00000          1.71506625
    2        2.00000          1.71506625

---OUTPUT-----------------------------------------------------------------------

 Cartesian coordinates (xcart) [bohr]
  0.00000000000000E+00  0.00000000000000E+00  0.00000000000000E+00
  2.55398355853242E+00  2.55398355853242E+00  2.55398355853242E+00
 Reduced coordinates (xred)
  0.00000000000000E+00  0.00000000000000E+00  0.00000000000000E+00
  2.50000000000000E-01  2.50000000000000E-01  2.50000000000000E-01
 Cartesian forces (fcart) [Ha/bohr]; max,rms= 0.00000E+00 0.00000E+00 (free atoms)
 -0.00000000000000E+00 -0.00000000000000E+00 -0.00000000000000E+00
 -0.00000000000000E+00 -0.00000000000000E+00 -0.00000000000000E+00
 Reduced forces (fred)
  0.00000000000000E+00  0.00000000000000E+00  0.00000000000000E+00
  0.00000000000000E+00  0.00000000000000E+00  0.00000000000000E+00
 Scale of Primitive Cell (acell) [bohr]
  1.02159342341297E+01  1.02159342341297E+01  1.02159342341297E+01
 Real space primitive translations (rprimd) [bohr]
  0.00000000000000E+00  5.10796711706484E+00  5.10796711706484E+00
  5.10796711706484E+00  0.00000000000000E+00  5.10796711706484E+00
  5.10796711706484E+00  5.10796711706484E+00  0.00000000000000E+00
 Unitary Cell Volume (ucvol) [Bohr^3]=  2.66547291634165E+02
 Angles (23,13,12)= [degrees]
  6.00000000000000E+01  6.00000000000000E+01  6.00000000000000E+01
 Lengths [Bohr]
  7.22375637310889E+00  7.22375637310889E+00  7.22375637310889E+00
 Stress tensor in cartesian coordinates (strten) [Ha/bohr^3]
  3.98073619659717E-07  0.00000000000000E+00  0.00000000000000E+00
  0.00000000000000E+00  3.98073619659988E-07  0.00000000000000E+00
  0.00000000000000E+00  0.00000000000000E+00  3.98073619659826E-07
 Total energy (etotal) [Ha]= -8.87232273416070E+00

 Difference of energy with previous step (new-old):
           Absolute (Ha)=-2.34993E-05
           Relative     =-2.64861E-06

 At Broyd/MD step   3, gradients are converged : 
  max grad (force/stress) = 3.9807E-05 < tolmxf= 5.0000E-05 ha/bohr (free atoms)

================================================================================

 ----iterations are completed or convergence reached----

 Mean square residual over all n,k,spin=   1.0553E-08; max=  5.7674E-06
 reduced coordinates (array xred) for    2 atoms
       0.000000000000      0.000000000000      0.000000000000
       0.250000000000      0.250000000000      0.250000000000
 rms dE/dt=  0.0000E+00; max dE/dt=  0.0000E+00; dE/dt below (all hartree)
    1       0.000000000000      0.000000000000      0.000000000000
    2       0.000000000000      0.000000000000      0.000000000000

 cartesian coordinates (angstrom) at end:
    1      0.00000000000000     0.00000000000000     0.00000000000000
    2      1.35150989028894     1.35150989028894     1.35150989028894

 cartesian forces (hartree/bohr) at end:
    1     -0.00000000000000    -0.00000000000000    -0.00000000000000
    2     -0.00000000000000    -0.00000000000000    -0.00000000000000
 frms,max,avg= 0.0000000E+00 0.0000000E+00   0.000E+00  0.000E+00  0.000E+00 h/b

 cartesian forces (eV/Angstrom) at end:
    1     -0.00000000000000    -0.00000000000000    -0.00000000000000
    2     -0.00000000000000    -0.00000000000000    -0.00000000000000
 frms,max,avg= 0.0000000E+00 0.0000000E+00   0.000E+00  0.000E+00  0.000E+00 e/A
 length scales= 10.215934234130 10.215934234130 10.215934234130 bohr
              =  5.406039561156  5.406039561156  5.406039561156 angstroms
 prteigrs : about to open file Si_o_DS1_EIG
 Fermi (or HOMO) energy (hartree) =   0.21536   Average Vxc (hartree)=  -0.35458
 Eigenvalues (hartree) for nkpt= 110  k points:
 kpt#   1, nband=  5, wtk=  0.00600, kpt= -0.0500 -0.1000  0.0000 (reduced coord)
  -0.22226    0.18346    0.20372    0.20881    0.30596
 prteigrs : prtvol=0 or 1, do not print more k-points.


--------------------------------------------------------------------------------
 Components of total free energy (in Hartree) :

    Kinetic energy  =  3.02431206210717E+00
    Hartree energy  =  5.37474682143771E-01
    XC energy       = -3.53874445430601E+00
    Ewald energy    = -8.43669964302702E+00
    PspCore energy  =  8.60707193888749E-02
    Loc. psp. energy= -2.43088043394399E+00
    NL   psp  energy=  1.88614433347650E+00
    >>>>>>>>> Etotal= -8.87232273416070E+00

 Other information on the energy :
    Total energy(eV)= -2.41428179649052E+02 ; Band energy (Ha)=   2.3175884262E-01
--------------------------------------------------------------------------------

 Cartesian components of stress tensor (hartree/bohr^3)
  sigma(1 1)=  3.98073620E-07  sigma(3 2)=  0.00000000E+00
  sigma(2 2)=  3.98073620E-07  sigma(3 1)=  0.00000000E+00
  sigma(3 3)=  3.98073620E-07  sigma(2 1)=  0.00000000E+00

-Cartesian components of stress tensor (GPa)         [Pressure= -1.1712E-02 GPa]
- sigma(1 1)=  1.17117283E-02  sigma(3 2)=  0.00000000E+00
- sigma(2 2)=  1.17117283E-02  sigma(3 1)=  0.00000000E+00
- sigma(3 3)=  1.17117283E-02  sigma(2 1)=  0.00000000E+00

================================================================================
== DATASET  2 ==================================================================
-   nproc =    1

 mkfilename : getwfk/=0, take file _WFK from output of DATASET   1.

 Exchange-correlation functional for the present dataset will be:
  LDA: new Teter (4/93) with spin-polarized option - ixc=1
 Citation for XC functional:
  S. Goedecker, M. Teter, J. Huetter, PRB 54, 1703 (1996)

 Real(R)+Recip(G) space primitive vectors, cartesian coordinates (Bohr,Bohr^-1):
 R(1)=  0.0000000  5.0900000  5.0900000  G(1)= -0.0982318  0.0982318  0.0982318
 R(2)=  5.0900000  0.0000000  5.0900000  G(2)=  0.0982318 -0.0982318  0.0982318
 R(3)=  5.0900000  5.0900000  0.0000000  G(3)=  0.0982318  0.0982318 -0.0982318
 Unit cell volume ucvol=  2.6374446E+02 bohr^3
 Angles (23,13,12)=  6.00000000E+01  6.00000000E+01  6.00000000E+01 degrees

 getcut: wavevector=  0.0000  0.0000  0.0000  ngfft=  24  24  24
         ecut(hartree)=     11.025   => boxcut(ratio)=   2.23061

 getcut : COMMENT -
  Note that boxcut > 2.2 ; recall that boxcut=Gcut(box)/Gcut(sphere) = 2
  is sufficient for exact treatment of convolution.
  Such a large boxcut is a waste : you could raise ecut
  e.g. ecut=   13.714080 Hartrees makes boxcut=2


--- Pseudopotential description ------------------------------------------------
- pspini: atom type   1  psp file is 14si.txt
- pspatm: opening atomic psp file    14si.txt
-  Troullier-Martins psp for element  Si        Thu Oct 27 17:31:21 EDT 1994
- 14.00000   4.00000    940714                znucl, zion, pspdat
    1    1    2    2      2001   0.00000      pspcod,pspxc,lmax,lloc,mmax,r2well
    0   5.907  14.692    1   2.0872718        l,e99.0,e99.9,nproj,rcpsp
   0.00000000   0.00000000   0.00000000   0.00000000     rms, ekb1, ekb2, epsatm
    1   2.617   4.181    1   2.0872718        l,e99.0,e99.9,nproj,rcpsp
   0.00000000   0.00000000   0.00000000   0.00000000     rms, ekb1, ekb2, epsatm
    2   0.000   0.000    0   2.0872718        l,e99.0,e99.9,nproj,rcpsp
   0.00000000   0.00000000   0.00000000   0.00000000     rms, ekb1, ekb2, epsatm
    1.80626423934776    0.22824404341771    1.17378968127746   rchrg,fchrg,qchrg
 pspatm: epsatm=    1.43386982
         --- l  ekb(1:nproj) -->
             0    3.287949
             1    1.849886
 pspatm: atomic psp has been read  and splines computed

--------------------------------------------------------------------------------

-inwffil : will read wavefunctions from disk file Si_o_DS1_WFK
_setup2: Arith. and geom. avg. npw (full set) are     461.182     461.164

================================================================================

=== [ionmov= 3] Broyden-Fletcher-Goldfard-Shanno method (forces,Tot energy) 
================================================================================

--- Iteration: ( 1/10) Internal Cycle: (1/1)
--------------------------------------------------------------------------------

---SELF-CONSISTENT-FIELD CONVERGENCE--------------------------------------------

     iter   Etot(hartree)      deltaE(h)  residm     vres2
 ETOT  1  -8.8737191699773    -8.874E+00 5.713E-06 2.578E-02
 ETOT  2  -8.8737291726630    -1.000E-05 5.046E-06 3.882E-04
 ETOT  3  -8.8737292927631    -1.201E-07 2.431E-06 7.639E-06
 ETOT  4  -8.8737292944129    -1.650E-09 3.659E-06 7.197E-09

 At SCF step    4, etot is converged : 
  for the second time, diff in etot=  1.650E-09 < toldfe=  1.000E-06

 Cartesian components of stress tensor (hartree/bohr^3)
  sigma(1 1)= -1.79525598E-05  sigma(3 2)=  0.00000000E+00
  sigma(2 2)= -1.79525598E-05  sigma(3 1)=  0.00000000E+00
  sigma(3 3)= -1.79525598E-05  sigma(2 1)=  0.00000000E+00

 Integrated electronic density in atomic spheres:
 ------------------------------------------------
 Atom  Sphere_radius  Integrated_density
    1        2.00000          1.79312882
    2        2.00000          1.79312882

---OUTPUT-----------------------------------------------------------------------

 Cartesian coordinates (xcart) [bohr]
  0.00000000000000E+00  0.00000000000000E+00  0.00000000000000E+00
  2.54500000000000E+00  2.54500000000000E+00  2.54500000000000E+00
 Reduced coordinates (xred)
  0.00000000000000E+00  0.00000000000000E+00  0.00000000000000E+00
  2.50000000000000E-01  2.50000000000000E-01  2.50000000000000E-01
 Cartesian forces (fcart) [Ha/bohr]; max,rms= 0.00000E+00 0.00000E+00 (free atoms)
 -0.00000000000000E+00 -0.00000000000000E+00 -0.00000000000000E+00
 -0.00000000000000E+00 -0.00000000000000E+00 -0.00000000000000E+00
 Reduced forces (fred)
  0.00000000000000E+00  0.00000000000000E+00  0.00000000000000E+00
  0.00000000000000E+00  0.00000000000000E+00  0.00000000000000E+00
 Scale of Primitive Cell (acell) [bohr]
  1.01800000000000E+01  1.01800000000000E+01  1.01800000000000E+01
 Real space primitive translations (rprimd) [bohr]
  0.00000000000000E+00  5.09000000000000E+00  5.09000000000000E+00
  5.09000000000000E+00  0.00000000000000E+00  5.09000000000000E+00
  5.09000000000000E+00  5.09000000000000E+00  0.00000000000000E+00
 Unitary Cell Volume (ucvol) [Bohr^3]=  2.63744458000000E+02
 Angles (23,13,12)= [degrees]
  6.00000000000000E+01  6.00000000000000E+01  6.00000000000000E+01
 Lengths [Bohr]
  7.19834703247905E+00  7.19834703247905E+00  7.19834703247905E+00
 Stress tensor in cartesian coordinates (strten) [Ha/bohr^3]
 -1.79525598332673E-05  0.00000000000000E+00  0.00000000000000E+00
  0.00000000000000E+00 -1.79525598332675E-05  0.00000000000000E+00
  0.00000000000000E+00  0.00000000000000E+00 -1.79525598332676E-05
 Total energy (etotal) [Ha]= -8.87372929441294E+00

--- Iteration: ( 2/10) Internal Cycle: (1/1)
--------------------------------------------------------------------------------

---SELF-CONSISTENT-FIELD CONVERGENCE--------------------------------------------

     iter   Etot(hartree)      deltaE(h)  residm     vres2
 ETOT  1  -8.8737354892893    -8.874E+00 5.350E-06 7.555E-04
 ETOT  2  -8.8737357936970    -3.044E-07 3.192E-06 2.234E-05
 ETOT  3  -8.8737357995309    -5.834E-09 1.383E-06 3.724E-07

 At SCF step    3, etot is converged : 
  for the second time, diff in etot=  5.834E-09 < toldfe=  1.000E-06

 Cartesian components of stress tensor (hartree/bohr^3)
  sigma(1 1)= -1.25521513E-05  sigma(3 2)=  0.00000000E+00
  sigma(2 2)= -1.25521513E-05  sigma(3 1)=  0.00000000E+00
  sigma(3 3)= -1.25521513E-05  sigma(2 1)=  0.00000000E+00

 Integrated electronic density in atomic spheres:
 ------------------------------------------------
 Atom  Sphere_radius  Integrated_density
    1        2.00000          1.79452669
    2        2.00000          1.79452669

---OUTPUT-----------------------------------------------------------------------

 Cartesian coordinates (xcart) [bohr]
  0.00000000000000E+00  0.00000000000000E+00  0.00000000000000E+00
  2.54637067794327E+00  2.54637067794327E+00  2.54637067794327E+00
 Reduced coordinates (xred)
  0.00000000000000E+00  0.00000000000000E+00  0.00000000000000E+00
  2.50000000000000E-01  2.50000000000000E-01  2.50000000000000E-01
 Cartesian forces (fcart) [Ha/bohr]; max,rms= 0.00000E+00 0.00000E+00 (free atoms)
 -0.00000000000000E+00 -0.00000000000000E+00 -0.00000000000000E+00
 -0.00000000000000E+00 -0.00000000000000E+00 -0.00000000000000E+00
 Reduced forces (fred)
  0.00000000000000E+00  0.00000000000000E+00  0.00000000000000E+00
  0.00000000000000E+00  0.00000000000000E+00  0.00000000000000E+00
 Scale of Primitive Cell (acell) [bohr]
  1.01854827117731E+01  1.01854827117731E+01  1.01854827117731E+01
 Real space primitive translations (rprimd) [bohr]
  0.00000000000000E+00  5.09274135588654E+00  5.09274135588654E+00
  5.09274135588654E+00  0.00000000000000E+00  5.09274135588654E+00
  5.09274135588654E+00  5.09274135588654E+00  0.00000000000000E+00
 Unitary Cell Volume (ucvol) [Bohr^3]=  2.64170827484947E+02
 Angles (23,13,12)= [degrees]
  6.00000000000000E+01  6.00000000000000E+01  6.00000000000000E+01
 Lengths [Bohr]
  7.20222389515309E+00  7.20222389515309E+00  7.20222389515309E+00
 Stress tensor in cartesian coordinates (strten) [Ha/bohr^3]
 -1.25521512688027E-05  0.00000000000000E+00  0.00000000000000E+00
  0.00000000000000E+00 -1.25521512688027E-05  0.00000000000000E+00
  0.00000000000000E+00  0.00000000000000E+00 -1.25521512688025E-05
 Total energy (etotal) [Ha]= -8.87373579953088E+00

 Difference of energy with previous step (new-old):
           Absolute (Ha)=-6.50512E-06
           Relative     =-7.33076E-07

--- Iteration: ( 3/10) Internal Cycle: (1/1)
--------------------------------------------------------------------------------

---SELF-CONSISTENT-FIELD CONVERGENCE--------------------------------------------

     iter   Etot(hartree)      deltaE(h)  residm     vres2
 ETOT  1  -8.8737404764759    -8.874E+00 6.240E-06 4.038E-03
 ETOT  2  -8.8737421050562    -1.629E-06 4.023E-06 1.207E-04
 ETOT  3  -8.8737421366389    -3.158E-08 3.835E-06 2.009E-06
 ETOT  4  -8.8737421370086    -3.697E-10 1.641E-06 2.217E-09

 At SCF step    4, etot is converged : 
  for the second time, diff in etot=  3.697E-10 < toldfe=  1.000E-06

 Cartesian components of stress tensor (hartree/bohr^3)
  sigma(1 1)= -2.96544415E-07  sigma(3 2)=  0.00000000E+00
  sigma(2 2)= -2.96544415E-07  sigma(3 1)=  0.00000000E+00
  sigma(3 3)= -2.96544415E-07  sigma(2 1)=  0.00000000E+00

 Integrated electronic density in atomic spheres:
 ------------------------------------------------
 Atom  Sphere_radius  Integrated_density
    1        2.00000          1.79777556
    2        2.00000          1.79777556

---OUTPUT-----------------------------------------------------------------------

 Cartesian coordinates (xcart) [bohr]
  0.00000000000000E+00  0.00000000000000E+00  0.00000000000000E+00
  2.54954183059064E+00  2.54954183059064E+00  2.54954183059064E+00
 Reduced coordinates (xred)
  0.00000000000000E+00  0.00000000000000E+00  0.00000000000000E+00
  2.50000000000000E-01  2.50000000000000E-01  2.50000000000000E-01
 Cartesian forces (fcart) [Ha/bohr]; max,rms= 0.00000E+00 0.00000E+00 (free atoms)
 -0.00000000000000E+00 -0.00000000000000E+00 -0.00000000000000E+00
 -0.00000000000000E+00 -0.00000000000000E+00 -0.00000000000000E+00
 Reduced forces (fred)
  0.00000000000000E+00  0.00000000000000E+00  0.00000000000000E+00
  0.00000000000000E+00  0.00000000000000E+00  0.00000000000000E+00
 Scale of Primitive Cell (acell) [bohr]
  1.01981673223626E+01  1.01981673223626E+01  1.01981673223626E+01
 Real space primitive translations (rprimd) [bohr]
  0.00000000000000E+00  5.09908366118128E+00  5.09908366118128E+00
  5.09908366118128E+00  0.00000000000000E+00  5.09908366118128E+00
  5.09908366118128E+00  5.09908366118128E+00  0.00000000000000E+00
 Unitary Cell Volume (ucvol) [Bohr^3]=  2.65159021856522E+02
 Angles (23,13,12)= [degrees]
  6.00000000000000E+01  6.00000000000000E+01  6.00000000000000E+01
 Lengths [Bohr]
  7.21119326931762E+00  7.21119326931762E+00  7.21119326931762E+00
 Stress tensor in cartesian coordinates (strten) [Ha/bohr^3]
 -2.96544415366248E-07  0.00000000000000E+00  0.00000000000000E+00
  0.00000000000000E+00 -2.96544415366248E-07  0.00000000000000E+00
  0.00000000000000E+00  0.00000000000000E+00 -2.96544415366194E-07
 Total energy (etotal) [Ha]= -8.87374213700856E+00

 Difference of energy with previous step (new-old):
           Absolute (Ha)=-6.33748E-06
           Relative     =-7.14183E-07

 At Broyd/MD step   3, gradients are converged : 
  max grad (force/stress) = 2.9654E-05 < tolmxf= 5.0000E-05 ha/bohr (free atoms)

================================================================================

 ----iterations are completed or convergence reached----

 Mean square residual over all n,k,spin=   3.0090E-09; max=  1.6413E-06
 reduced coordinates (array xred) for    2 atoms
       0.000000000000      0.000000000000      0.000000000000
       0.250000000000      0.250000000000      0.250000000000
 rms dE/dt=  0.0000E+00; max dE/dt=  0.0000E+00; dE/dt below (all hartree)
    1       0.000000000000      0.000000000000      0.000000000000
    2       0.000000000000      0.000000000000      0.000000000000

 cartesian coordinates (angstrom) at end:
    1      0.00000000000000     0.00000000000000     0.00000000000000
    2      1.34915942909539     1.34915942909539     1.34915942909539

 cartesian forces (hartree/bohr) at end:
    1     -0.00000000000000    -0.00000000000000    -0.00000000000000
    2     -0.00000000000000    -0.00000000000000    -0.00000000000000
 frms,max,avg= 0.0000000E+00 0.0000000E+00   0.000E+00  0.000E+00  0.000E+00 h/b

 cartesian forces (eV/Angstrom) at end:
    1     -0.00000000000000    -0.00000000000000    -0.00000000000000
    2     -0.00000000000000    -0.00000000000000    -0.00000000000000
 frms,max,avg= 0.0000000E+00 0.0000000E+00   0.000E+00  0.000E+00  0.000E+00 e/A
 length scales= 10.198167322363 10.198167322363 10.198167322363 bohr
              =  5.396637716382  5.396637716382  5.396637716382 angstroms
 prteigrs : about to open file Si_o_DS2_EIG
 Fermi (or HOMO) energy (hartree) =   0.21703   Average Vxc (hartree)=  -0.35528
 Eigenvalues (hartree) for nkpt= 110  k points:
 kpt#   1, nband=  5, wtk=  0.00600, kpt= -0.0500 -0.1000  0.0000 (reduced coord)
  -0.22161    0.18524    0.20535    0.21050    0.30742
 prteigrs : prtvol=0 or 1, do not print more k-points.


--------------------------------------------------------------------------------
 Components of total free energy (in Hartree) :

    Kinetic energy  =  3.03380038933572E+00
    Hartree energy  =  5.35732491884950E-01
    XC energy       = -3.54201053220002E+00
    Ewald energy    = -8.45139778372478E+00
    PspCore energy  =  8.65213522869410E-02
    Loc. psp. energy= -2.41710361875243E+00
    NL   psp  energy=  1.88071556416105E+00
    >>>>>>>>> Etotal= -8.87374213700856E+00

 Other information on the energy :
    Total energy(eV)= -2.41466803564797E+02 ; Band energy (Ha)=   2.4203215873E-01
--------------------------------------------------------------------------------

 Cartesian components of stress tensor (hartree/bohr^3)
  sigma(1 1)= -2.96544415E-07  sigma(3 2)=  0.00000000E+00
  sigma(2 2)= -2.96544415E-07  sigma(3 1)=  0.00000000E+00
  sigma(3 3)= -2.96544415E-07  sigma(2 1)=  0.00000000E+00

-Cartesian components of stress tensor (GPa)         [Pressure=  8.7246E-03 GPa]
- sigma(1 1)= -8.72463645E-03  sigma(3 2)=  0.00000000E+00
- sigma(2 2)= -8.72463645E-03  sigma(3 1)=  0.00000000E+00
- sigma(3 3)= -8.72463645E-03  sigma(2 1)=  0.00000000E+00

================================================================================
== DATASET  3 ==================================================================
-   nproc =    1

 mkfilename : getwfk/=0, take file _WFK from output of DATASET   2.

 Exchange-correlation functional for the present dataset will be:
  LDA: new Teter (4/93) with spin-polarized option - ixc=1
 Citation for XC functional:
  S. Goedecker, M. Teter, J. Huetter, PRB 54, 1703 (1996)

 Real(R)+Recip(G) space primitive vectors, cartesian coordinates (Bohr,Bohr^-1):
 R(1)=  0.0000000  5.0900000  5.0900000  G(1)= -0.0982318  0.0982318  0.0982318
 R(2)=  5.0900000  0.0000000  5.0900000  G(2)=  0.0982318 -0.0982318  0.0982318
 R(3)=  5.0900000  5.0900000  0.0000000  G(3)=  0.0982318  0.0982318 -0.0982318
 Unit cell volume ucvol=  2.6374446E+02 bohr^3
 Angles (23,13,12)=  6.00000000E+01  6.00000000E+01  6.00000000E+01 degrees

 getcut: wavevector=  0.0000  0.0000  0.0000  ngfft=  24  24  24
         ecut(hartree)=     13.230   => boxcut(ratio)=   2.03626

--- Pseudopotential description ------------------------------------------------
- pspini: atom type   1  psp file is 14si.txt
- pspatm: opening atomic psp file    14si.txt
-  Troullier-Martins psp for element  Si        Thu Oct 27 17:31:21 EDT 1994
- 14.00000   4.00000    940714                znucl, zion, pspdat
    1    1    2    2      2001   0.00000      pspcod,pspxc,lmax,lloc,mmax,r2well
    0   5.907  14.692    1   2.0872718        l,e99.0,e99.9,nproj,rcpsp
   0.00000000   0.00000000   0.00000000   0.00000000     rms, ekb1, ekb2, epsatm
    1   2.617   4.181    1   2.0872718        l,e99.0,e99.9,nproj,rcpsp
   0.00000000   0.00000000   0.00000000   0.00000000     rms, ekb1, ekb2, epsatm
    2   0.000   0.000    0   2.0872718        l,e99.0,e99.9,nproj,rcpsp
   0.00000000   0.00000000   0.00000000   0.00000000     rms, ekb1, ekb2, epsatm
    1.80626423934776    0.22824404341771    1.17378968127746   rchrg,fchrg,qchrg
 pspatm: epsatm=    1.43386982
         --- l  ekb(1:nproj) -->
             0    3.287949
             1    1.849886
 pspatm: atomic psp has been read  and splines computed

--------------------------------------------------------------------------------

-inwffil : will read wavefunctions from disk file Si_o_DS2_WFK
_setup2: Arith. and geom. avg. npw (full set) are     606.192     606.173

================================================================================

=== [ionmov= 3] Broyden-Fletcher-Goldfard-Shanno method (forces,Tot energy) 
================================================================================

--- Iteration: ( 1/10) Internal Cycle: (1/1)
--------------------------------------------------------------------------------

---SELF-CONSISTENT-FIELD CONVERGENCE--------------------------------------------

     iter   Etot(hartree)      deltaE(h)  residm     vres2
 ETOT  1  -8.8749820384733    -8.875E+00 7.935E-06 4.724E-03
 ETOT  2  -8.8749838405677    -1.802E-06 2.092E-06 6.875E-05
 ETOT  3  -8.8749838614851    -2.092E-08 5.844E-07 1.590E-06
 ETOT  4  -8.8749838618295    -3.444E-10 1.494E-06 1.941E-09

 At SCF step    4, etot is converged : 
  for the second time, diff in etot=  3.444E-10 < toldfe=  1.000E-06

 Cartesian components of stress tensor (hartree/bohr^3)
  sigma(1 1)= -1.91725512E-05  sigma(3 2)=  0.00000000E+00
  sigma(2 2)= -1.91725512E-05  sigma(3 1)=  0.00000000E+00
  sigma(3 3)= -1.91725512E-05  sigma(2 1)=  0.00000000E+00

 Integrated electronic density in atomic spheres:
 ------------------------------------------------
 Atom  Sphere_radius  Integrated_density
    1        2.00000          1.79439984
    2        2.00000          1.79439984

---OUTPUT-----------------------------------------------------------------------

 Cartesian coordinates (xcart) [bohr]
  0.00000000000000E+00  0.00000000000000E+00  0.00000000000000E+00
  2.54500000000000E+00  2.54500000000000E+00  2.54500000000000E+00
 Reduced coordinates (xred)
  0.00000000000000E+00  0.00000000000000E+00  0.00000000000000E+00
  2.50000000000000E-01  2.50000000000000E-01  2.50000000000000E-01
 Cartesian forces (fcart) [Ha/bohr]; max,rms= 0.00000E+00 0.00000E+00 (free atoms)
 -0.00000000000000E+00 -0.00000000000000E+00 -0.00000000000000E+00
 -0.00000000000000E+00 -0.00000000000000E+00 -0.00000000000000E+00
 Reduced forces (fred)
  0.00000000000000E+00  0.00000000000000E+00  0.00000000000000E+00
  0.00000000000000E+00  0.00000000000000E+00  0.00000000000000E+00
 Scale of Primitive Cell (acell) [bohr]
  1.01800000000000E+01  1.01800000000000E+01  1.01800000000000E+01
 Real space primitive translations (rprimd) [bohr]
  0.00000000000000E+00  5.09000000000000E+00  5.09000000000000E+00
  5.09000000000000E+00  0.00000000000000E+00  5.09000000000000E+00
  5.09000000000000E+00  5.09000000000000E+00  0.00000000000000E+00
 Unitary Cell Volume (ucvol) [Bohr^3]=  2.63744458000000E+02
 Angles (23,13,12)= [degrees]
  6.00000000000000E+01  6.00000000000000E+01  6.00000000000000E+01
 Lengths [Bohr]
  7.19834703247905E+00  7.19834703247905E+00  7.19834703247905E+00
 Stress tensor in cartesian coordinates (strten) [Ha/bohr^3]
 -1.91725511948843E-05  0.00000000000000E+00  0.00000000000000E+00
  0.00000000000000E+00 -1.91725511948842E-05  0.00000000000000E+00
  0.00000000000000E+00  0.00000000000000E+00 -1.91725511948841E-05
 Total energy (etotal) [Ha]= -8.87498386182947E+00

--- Iteration: ( 2/10) Internal Cycle: (1/1)
--------------------------------------------------------------------------------

---SELF-CONSISTENT-FIELD CONVERGENCE--------------------------------------------

     iter   Etot(hartree)      deltaE(h)  residm     vres2
 ETOT  1  -8.8749909144471    -8.875E+00 1.137E-06 8.634E-04
 ETOT  2  -8.8749912627037    -3.483E-07 8.560E-07 2.545E-05
 ETOT  3  -8.8749912693504    -6.647E-09 2.147E-07 4.274E-07

 At SCF step    3, etot is converged : 
  for the second time, diff in etot=  6.647E-09 < toldfe=  1.000E-06

 Cartesian components of stress tensor (hartree/bohr^3)
  sigma(1 1)= -1.33520738E-05  sigma(3 2)=  0.00000000E+00
  sigma(2 2)= -1.33520738E-05  sigma(3 1)=  0.00000000E+00
  sigma(3 3)= -1.33520738E-05  sigma(2 1)=  0.00000000E+00

 Integrated electronic density in atomic spheres:
 ------------------------------------------------
 Atom  Sphere_radius  Integrated_density
    1        2.00000          1.79589112
    2        2.00000          1.79589112

---OUTPUT-----------------------------------------------------------------------

 Cartesian coordinates (xcart) [bohr]
  0.00000000000000E+00  0.00000000000000E+00  0.00000000000000E+00
  2.54646382428373E+00  2.54646382428373E+00  2.54646382428373E+00
 Reduced coordinates (xred)
  0.00000000000000E+00  0.00000000000000E+00  0.00000000000000E+00
  2.50000000000000E-01  2.50000000000000E-01  2.50000000000000E-01
 Cartesian forces (fcart) [Ha/bohr]; max,rms= 0.00000E+00 0.00000E+00 (free atoms)
 -0.00000000000000E+00 -0.00000000000000E+00 -0.00000000000000E+00
 -0.00000000000000E+00 -0.00000000000000E+00 -0.00000000000000E+00
 Reduced forces (fred)
  0.00000000000000E+00  0.00000000000000E+00  0.00000000000000E+00
  0.00000000000000E+00  0.00000000000000E+00  0.00000000000000E+00
 Scale of Primitive Cell (acell) [bohr]
  1.01858552971349E+01  1.01858552971349E+01  1.01858552971349E+01
 Real space primitive translations (rprimd) [bohr]
  0.00000000000000E+00  5.09292764856746E+00  5.09292764856746E+00
  5.09292764856746E+00  0.00000000000000E+00  5.09292764856746E+00
  5.09292764856746E+00  5.09292764856746E+00  0.00000000000000E+00
 Unitary Cell Volume (ucvol) [Bohr^3]=  2.64199818683482E+02
 Angles (23,13,12)= [degrees]
  6.00000000000000E+01  6.00000000000000E+01  6.00000000000000E+01
 Lengths [Bohr]
  7.20248735278902E+00  7.20248735278902E+00  7.20248735278902E+00
 Stress tensor in cartesian coordinates (strten) [Ha/bohr^3]
 -1.33520737577764E-05  0.00000000000000E+00  0.00000000000000E+00
  0.00000000000000E+00 -1.33520737577764E-05  0.00000000000000E+00
  0.00000000000000E+00  0.00000000000000E+00 -1.33520737577765E-05
 Total energy (etotal) [Ha]= -8.87499126935035E+00

 Difference of energy with previous step (new-old):
           Absolute (Ha)=-7.40752E-06
           Relative     =-8.34651E-07

--- Iteration: ( 3/10) Internal Cycle: (1/1)
--------------------------------------------------------------------------------

---SELF-CONSISTENT-FIELD CONVERGENCE--------------------------------------------

     iter   Etot(hartree)      deltaE(h)  residm     vres2
 ETOT  1  -8.8749965363558    -8.875E+00 2.024E-06 4.501E-03
 ETOT  2  -8.8749983535042    -1.817E-06 4.995E-07 1.342E-04
 ETOT  3  -8.8749983886237    -3.512E-08 1.355E-07 2.249E-06
 ETOT  4  -8.8749983890383    -4.145E-10 2.842E-07 2.493E-09

 At SCF step    4, etot is converged : 
  for the second time, diff in etot=  4.145E-10 < toldfe=  1.000E-06

 Cartesian components of stress tensor (hartree/bohr^3)
  sigma(1 1)= -3.31185004E-07  sigma(3 2)=  0.00000000E+00
  sigma(2 2)= -3.31185004E-07  sigma(3 1)=  0.00000000E+00
  sigma(3 3)= -3.31185004E-07  sigma(2 1)=  0.00000000E+00

 Integrated electronic density in atomic spheres:
 ------------------------------------------------
 Atom  Sphere_radius  Integrated_density
    1        2.00000          1.79931289
    2        2.00000          1.79931289

---OUTPUT-----------------------------------------------------------------------

 Cartesian coordinates (xcart) [bohr]
  0.00000000000000E+00  0.00000000000000E+00  0.00000000000000E+00
  2.54980804029780E+00  2.54980804029780E+00  2.54980804029780E+00
 Reduced coordinates (xred)
  0.00000000000000E+00  0.00000000000000E+00  0.00000000000000E+00
  2.50000000000000E-01  2.50000000000000E-01  2.50000000000000E-01
 Cartesian forces (fcart) [Ha/bohr]; max,rms= 0.00000E+00 0.00000E+00 (free atoms)
 -0.00000000000000E+00 -0.00000000000000E+00 -0.00000000000000E+00
 -0.00000000000000E+00 -0.00000000000000E+00 -0.00000000000000E+00
 Reduced forces (fred)
  0.00000000000000E+00  0.00000000000000E+00  0.00000000000000E+00
  0.00000000000000E+00  0.00000000000000E+00  0.00000000000000E+00
 Scale of Primitive Cell (acell) [bohr]
  1.01992321611912E+01  1.01992321611912E+01  1.01992321611912E+01
 Real space primitive translations (rprimd) [bohr]
  0.00000000000000E+00  5.09961608059559E+00  5.09961608059559E+00
  5.09961608059559E+00  0.00000000000000E+00  5.09961608059559E+00
  5.09961608059559E+00  5.09961608059559E+00  0.00000000000000E+00
 Unitary Cell Volume (ucvol) [Bohr^3]=  2.65242090047895E+02
 Angles (23,13,12)= [degrees]
  6.00000000000000E+01  6.00000000000000E+01  6.00000000000000E+01
 Lengths [Bohr]
  7.21194622407422E+00  7.21194622407422E+00  7.21194622407422E+00
[...]
                       5.0000000000E-01  5.0000000000E-01  0.0000000000E+00
           shiftk      5.00000000E-01  5.00000000E-01  5.00000000E-01
          spgroup         227
           strten1     3.9807361966E-07  3.9807361966E-07  3.9807361966E-07
                       0.0000000000E+00  0.0000000000E+00  0.0000000000E+00
           strten2    -2.9654441537E-07 -2.9654441537E-07 -2.9654441537E-07
                       0.0000000000E+00  0.0000000000E+00  0.0000000000E+00
           strten3    -3.3118500369E-07 -3.3118500369E-07 -3.3118500369E-07
                       0.0000000000E+00  0.0000000000E+00  0.0000000000E+00
           strten4    -3.6984134627E-07 -3.6984134627E-07 -3.6984134627E-07
                       0.0000000000E+00  0.0000000000E+00  0.0000000000E+00
           strten5    -3.6359141098E-07 -3.6359141098E-07 -3.6359141098E-07
                       0.0000000000E+00  0.0000000000E+00  0.0000000000E+00
           strten6    -3.7444093740E-07 -3.7444093740E-07 -3.7444093740E-07
                       0.0000000000E+00  0.0000000000E+00  0.0000000000E+00
           strten7    -3.7212051645E-07 -3.7212051645E-07 -3.7212051645E-07
                       0.0000000000E+00  0.0000000000E+00  0.0000000000E+00
           strten8    -3.7127345785E-07 -3.7127345785E-07 -3.7127345785E-07
                       0.0000000000E+00  0.0000000000E+00  0.0000000000E+00
           strten9    -3.7066703703E-07 -3.7066703703E-07 -3.7066703703E-07
                       0.0000000000E+00  0.0000000000E+00  0.0000000000E+00
           strten10   -3.6887663374E-07 -3.6887663374E-07 -3.6887663374E-07
                       0.0000000000E+00  0.0000000000E+00  0.0000000000E+00
           strten11   -3.6637056073E-07 -3.6637056073E-07 -3.6637056073E-07
                       0.0000000000E+00  0.0000000000E+00  0.0000000000E+00
           strten12   -3.7036389319E-07 -3.7036389319E-07 -3.7036389319E-07
                       0.0000000000E+00  0.0000000000E+00  0.0000000000E+00
           strten13   -3.6808948436E-07 -3.6808948436E-07 -3.6808948436E-07
                       0.0000000000E+00  0.0000000000E+00  0.0000000000E+00
           strten14   -3.7028370317E-07 -3.7028370317E-07 -3.7028370317E-07
                       0.0000000000E+00  0.0000000000E+00  0.0000000000E+00
           strten15   -3.7024087957E-07 -3.7024087957E-07 -3.7024087957E-07
                       0.0000000000E+00  0.0000000000E+00  0.0000000000E+00
           strten16   -3.6985611598E-07 -3.6985611598E-07 -3.6985611598E-07
                       0.0000000000E+00  0.0000000000E+00  0.0000000000E+00
           strten17   -3.6857308075E-07 -3.6857308075E-07 -3.6857308075E-07
                       0.0000000000E+00  0.0000000000E+00  0.0000000000E+00
           strten18   -3.7031865564E-07 -3.7031865564E-07 -3.7031865564E-07
                       0.0000000000E+00  0.0000000000E+00  0.0000000000E+00
           strten19   -3.6961306873E-07 -3.6961306873E-07 -3.6961306873E-07
                       0.0000000000E+00  0.0000000000E+00  0.0000000000E+00
           strten20   -3.7053825418E-07 -3.7053825418E-07 -3.7053825418E-07
                       0.0000000000E+00  0.0000000000E+00  0.0000000000E+00
           strten21   -3.7027109233E-07 -3.7027109233E-07 -3.7027109233E-07
                       0.0000000000E+00  0.0000000000E+00  0.0000000000E+00
           strten22   -3.7020582603E-07 -3.7020582603E-07 -3.7020582603E-07
                       0.0000000000E+00  0.0000000000E+00  0.0000000000E+00
           symrel      1  0  0   0  1  0   0  0  1      -1  0  0   0 -1  0   0  0 -1
                       0 -1  1   0 -1  0   1 -1  0       0  1 -1   0  1  0  -1  1  0
                      -1  0  0  -1  0  1  -1  1  0       1  0  0   1  0 -1   1 -1  0
                       0  1 -1   1  0 -1   0  0 -1       0 -1  1  -1  0  1   0  0  1
                      -1  0  0  -1  1  0  -1  0  1       1  0  0   1 -1  0   1  0 -1
                       0 -1  1   1 -1  0   0 -1  0       0  1 -1  -1  1  0   0  1  0
                       1  0  0   0  0  1   0  1  0      -1  0  0   0  0 -1   0 -1  0
                       0  1 -1   0  0 -1   1  0 -1       0 -1  1   0  0  1  -1  0  1
                      -1  0  1  -1  1  0  -1  0  0       1  0 -1   1 -1  0   1  0  0
                       0 -1  0   1 -1  0   0 -1  1       0  1  0  -1  1  0   0  1 -1
                       1  0 -1   0  0 -1   0  1 -1      -1  0  1   0  0  1   0 -1  1
                       0  1  0   0  0  1   1  0  0       0 -1  0   0  0 -1  -1  0  0
                       1  0 -1   0  1 -1   0  0 -1      -1  0  1   0 -1  1   0  0  1
                       0 -1  0   0 -1  1   1 -1  0       0  1  0   0  1 -1  -1  1  0
                      -1  0  1  -1  0  0  -1  1  0       1  0 -1   1  0  0   1 -1  0
                       0  1  0   1  0  0   0  0  1       0 -1  0  -1  0  0   0  0 -1
                       0  0 -1   0  1 -1   1  0 -1       0  0  1   0 -1  1  -1  0  1
                       1 -1  0   0 -1  1   0 -1  0      -1  1  0   0  1 -1   0  1  0
                       0  0  1   1  0  0   0  1  0       0  0 -1  -1  0  0   0 -1  0
                      -1  1  0  -1  0  0  -1  0  1       1 -1  0   1  0  0   1  0 -1
                       0  0  1   0  1  0   1  0  0       0  0 -1   0 -1  0  -1  0  0
                       1 -1  0   0 -1  0   0 -1  1      -1  1  0   0  1  0   0  1 -1
                       0  0 -1   1  0 -1   0  1 -1       0  0  1  -1  0  1   0 -1  1
                      -1  1  0  -1  0  1  -1  0  0       1 -1  0   1  0 -1   1  0  0
            tnons      0.0000000  0.0000000  0.0000000     0.2500000  0.2500000  0.2500000
                       0.0000000  0.0000000  0.0000000     0.2500000  0.2500000  0.2500000
                       0.0000000  0.0000000  0.0000000     0.2500000  0.2500000  0.2500000
                       0.0000000  0.0000000  0.0000000     0.2500000  0.2500000  0.2500000
                       0.0000000  0.0000000  0.0000000     0.2500000  0.2500000  0.2500000
                       0.0000000  0.0000000  0.0000000     0.2500000  0.2500000  0.2500000
                       0.0000000  0.0000000  0.0000000     0.2500000  0.2500000  0.2500000
                       0.0000000  0.0000000  0.0000000     0.2500000  0.2500000  0.2500000
                       0.0000000  0.0000000  0.0000000     0.2500000  0.2500000  0.2500000
                       0.0000000  0.0000000  0.0000000     0.2500000  0.2500000  0.2500000
                       0.0000000  0.0000000  0.0000000     0.2500000  0.2500000  0.2500000
                       0.0000000  0.0000000  0.0000000     0.2500000  0.2500000  0.2500000
                       0.0000000  0.0000000  0.0000000     0.2500000  0.2500000  0.2500000
                       0.0000000  0.0000000  0.0000000     0.2500000  0.2500000  0.2500000
                       0.0000000  0.0000000  0.0000000     0.2500000  0.2500000  0.2500000
                       0.0000000  0.0000000  0.0000000     0.2500000  0.2500000  0.2500000
                       0.0000000  0.0000000  0.0000000     0.2500000  0.2500000  0.2500000
                       0.0000000  0.0000000  0.0000000     0.2500000  0.2500000  0.2500000
                       0.0000000  0.0000000  0.0000000     0.2500000  0.2500000  0.2500000
                       0.0000000  0.0000000  0.0000000     0.2500000  0.2500000  0.2500000
                       0.0000000  0.0000000  0.0000000     0.2500000  0.2500000  0.2500000
                       0.0000000  0.0000000  0.0000000     0.2500000  0.2500000  0.2500000
                       0.0000000  0.0000000  0.0000000     0.2500000  0.2500000  0.2500000
                       0.0000000  0.0000000  0.0000000     0.2500000  0.2500000  0.2500000
           toldfe      1.00000000E-06 Hartree
            typat      1  1
              wtk        0.00600    0.00600    0.00600    0.01200    0.00600    0.00600
                         0.01200    0.00600    0.01200    0.01200    0.00600    0.00600
                         0.01200    0.00600    0.01200    0.01200    0.00600    0.01200
                         0.01200    0.01200    0.00600    0.00600    0.01200    0.00600
                         0.01200    0.01200    0.00600    0.01200    0.01200    0.01200
                         0.00600    0.01200    0.01200    0.01200    0.01200    0.00600
                         0.00600    0.00600    0.01200    0.00600    0.01200    0.01200
                         0.01200    0.00600    0.01200    0.01200    0.01200    0.01200
                         0.00600    0.01200
                       outvars : Printing only first  50 k-points.
           xangst1     0.0000000000E+00  0.0000000000E+00  0.0000000000E+00
                       1.3515098903E+00  1.3515098903E+00  1.3515098903E+00
           xangst2     0.0000000000E+00  0.0000000000E+00  0.0000000000E+00
                       1.3491594291E+00  1.3491594291E+00  1.3491594291E+00
           xangst3     0.0000000000E+00  0.0000000000E+00  0.0000000000E+00
                       1.3493003012E+00  1.3493003012E+00  1.3493003012E+00
           xangst4     0.0000000000E+00  0.0000000000E+00  0.0000000000E+00
                       1.3493938281E+00  1.3493938281E+00  1.3493938281E+00
           xangst5     0.0000000000E+00  0.0000000000E+00  0.0000000000E+00
                       1.3494106171E+00  1.3494106171E+00  1.3494106171E+00
           xangst6     0.0000000000E+00  0.0000000000E+00  0.0000000000E+00
                       1.3494297062E+00  1.3494297062E+00  1.3494297062E+00
           xangst7     0.0000000000E+00  0.0000000000E+00  0.0000000000E+00
                       1.3494340088E+00  1.3494340088E+00  1.3494340088E+00
           xangst8     0.0000000000E+00  0.0000000000E+00  0.0000000000E+00
                       1.3494333355E+00  1.3494333355E+00  1.3494333355E+00
           xangst9    -7.4585869184E-32  2.0401915263E-32  7.4680649233E-32
                       1.3494348974E+00  1.3494348974E+00  1.3494348974E+00
           xangst10    0.0000000000E+00  0.0000000000E+00  0.0000000000E+00
                       1.3494299685E+00  1.3494299685E+00  1.3494299685E+00
           xangst11    1.5792644076E-31 -1.5792644076E-31 -1.5792644076E-31
                       1.3494330911E+00  1.3494330911E+00  1.3494330911E+00
           xangst12    1.1278769869E-31 -1.1278769869E-31 -1.1278769869E-31
                       1.3494349639E+00  1.3494349639E+00  1.3494349639E+00
           xangst13    3.3377329073E-31  6.3039613934E-32 -3.3389808790E-31
                       1.3494362259E+00  1.3494362259E+00  1.3494362259E+00
           xangst14    0.0000000000E+00  0.0000000000E+00  0.0000000000E+00
                       1.3494360798E+00  1.3494360798E+00  1.3494360798E+00
           xangst15    0.0000000000E+00  0.0000000000E+00  0.0000000000E+00
                       1.3494360267E+00  1.3494360267E+00  1.3494360267E+00
           xangst16    0.0000000000E+00  0.0000000000E+00  0.0000000000E+00
                       1.3494358934E+00  1.3494358934E+00  1.3494358934E+00
           xangst17    9.0240208372E-32  9.0240208372E-32 -9.0240208372E-32
                       1.3494360407E+00  1.3494360407E+00  1.3494360407E+00
           xangst18    0.0000000000E+00  0.0000000000E+00  0.0000000000E+00
                       1.3494359722E+00  1.3494359722E+00  1.3494359722E+00
           xangst19    0.0000000000E+00  0.0000000000E+00  0.0000000000E+00
                       1.3494363293E+00  1.3494363293E+00  1.3494363293E+00
           xangst20    0.0000000000E+00  0.0000000000E+00  0.0000000000E+00
                       1.3494363296E+00  1.3494363296E+00  1.3494363296E+00
           xangst21    0.0000000000E+00  0.0000000000E+00  0.0000000000E+00
                       1.3494364523E+00  1.3494364523E+00  1.3494364523E+00
           xangst22    9.0234762422E-32 -9.0234762422E-32 -9.0234762422E-32
                       1.3494364705E+00  1.3494364705E+00  1.3494364705E+00
            xcart1     0.0000000000E+00  0.0000000000E+00  0.0000000000E+00
                       2.5539835585E+00  2.5539835585E+00  2.5539835585E+00
            xcart2     0.0000000000E+00  0.0000000000E+00  0.0000000000E+00
                       2.5495418306E+00  2.5495418306E+00  2.5495418306E+00
            xcart3     0.0000000000E+00  0.0000000000E+00  0.0000000000E+00
                       2.5498080403E+00  2.5498080403E+00  2.5498080403E+00
            xcart4     0.0000000000E+00  0.0000000000E+00  0.0000000000E+00
                       2.5499847805E+00  2.5499847805E+00  2.5499847805E+00
            xcart5     0.0000000000E+00  0.0000000000E+00  0.0000000000E+00
                       2.5500165071E+00  2.5500165071E+00  2.5500165071E+00
            xcart6     0.0000000000E+00  0.0000000000E+00  0.0000000000E+00
                       2.5500525803E+00  2.5500525803E+00  2.5500525803E+00
            xcart7     0.0000000000E+00  0.0000000000E+00  0.0000000000E+00
                       2.5500607111E+00  2.5500607111E+00  2.5500607111E+00
            xcart8     0.0000000000E+00  0.0000000000E+00  0.0000000000E+00
                       2.5500594387E+00  2.5500594387E+00  2.5500594387E+00
            xcart9    -1.4094686614E-31  3.8554032434E-32  1.4112597448E-31
                       2.5500623902E+00  2.5500623902E+00  2.5500623902E+00
            xcart10    0.0000000000E+00  0.0000000000E+00  0.0000000000E+00
                       2.5500530760E+00  2.5500530760E+00  2.5500530760E+00
            xcart11    2.9843772218E-31 -2.9843772218E-31 -2.9843772218E-31
                       2.5500589769E+00  2.5500589769E+00  2.5500589769E+00
            xcart12    2.1313786168E-31 -2.1313786168E-31 -2.1313786168E-31
                       2.5500625160E+00  2.5500625160E+00  2.5500625160E+00
            xcart13    6.3074010996E-31  1.1912760586E-31 -6.3097594243E-31
                       2.5500649007E+00  2.5500649007E+00  2.5500649007E+00
            xcart14    0.0000000000E+00  0.0000000000E+00  0.0000000000E+00
                       2.5500646246E+00  2.5500646246E+00  2.5500646246E+00
            xcart15    0.0000000000E+00  0.0000000000E+00  0.0000000000E+00
                       2.5500645243E+00  2.5500645243E+00  2.5500645243E+00
            xcart16    0.0000000000E+00  0.0000000000E+00  0.0000000000E+00
                       2.5500642725E+00  2.5500642725E+00  2.5500642725E+00
            xcart17    1.7052928000E-31  1.7052928000E-31 -1.7052928000E-31
                       2.5500645507E+00  2.5500645507E+00  2.5500645507E+00
            xcart18    0.0000000000E+00  0.0000000000E+00  0.0000000000E+00
                       2.5500644214E+00  2.5500644214E+00  2.5500644214E+00
            xcart19    0.0000000000E+00  0.0000000000E+00  0.0000000000E+00
                       2.5500650961E+00  2.5500650961E+00  2.5500650961E+00
            xcart20    0.0000000000E+00  0.0000000000E+00  0.0000000000E+00
                       2.5500650967E+00  2.5500650967E+00  2.5500650967E+00
            xcart21    0.0000000000E+00  0.0000000000E+00  0.0000000000E+00
                       2.5500653287E+00  2.5500653287E+00  2.5500653287E+00
            xcart22    1.7051898864E-31 -1.7051898864E-31 -1.7051898864E-31
                       2.5500653630E+00  2.5500653630E+00  2.5500653630E+00
             xred      0.0000000000E+00  0.0000000000E+00  0.0000000000E+00
                       2.5000000000E-01  2.5000000000E-01  2.5000000000E-01
            znucl       14.00000

================================================================================


- Timing analysis has been suppressed with timopt=0



================================================================================

 Suggested references for the acknowledgment of ABINIT usage.

 The users of ABINIT have little formal obligations with respect to the ABINIT group
 (those specified in the GNU General Public License, http://www.gnu.org/copyleft/gpl.txt).
 However, it is common practice in the scientific literature,
 to acknowledge the efforts of people that have made the research possible.
 In this spirit, please find below suggested citations of work written by ABINIT developers,
 corresponding to implementations inside of ABINIT that you have used in the present run.
 Note also that it will be of great value to readers of publications presenting these results,
 to read papers enabling them to understand the theoretical formalism and details
 of the ABINIT implementation.
 For information on why they are suggested, see also http://www.abinit.org/about/?text=acknowledgments.
-
- [1] Recent developments in the ABINIT software package
- X.Gonze, F.Jollet, F.Abreu Araujo, D.Adams, B.Amadon, T.Applencourt,
- C.Audouze, J.-M.Beuken, J.Bieder, A.Bokhanchuk, E.Bousquet, F.Bruneval
- D.Caliste, M.Cote, F.Dahm, F.Da Pieve, M.Delaveau, M.Di Gennaro,
- B.Dorado, C.Espejo, G.Geneste, L.Genovese, A.Gerossier, M.Giantomassi,
- Y.Gillet, D.R.Hamann, L.He, G.Jomard, J.Laflamme Janssen, S.Le Roux,
- A.Levitt, A.Lherbier, F.Liu, I.Lukacevic, A.Martin, C.Martins,
- M.J.T.Oliveira, S.Ponce, Y.Pouillon, T.Rangel, G.-M.Rignanese,
- A.H.Romero, B.Rousseau, O.Rubel, A.A.Shukri, M.Stankovski, M.Torrent,
- Comment : the fourth generic paper describing the ABINIT project.
- Note that a version of this paper, that is not formatted for Computer Phys. Comm. 
- is available at http://www.abinit.org/about/ABINIT16.pdf .
- The licence allows the authors to put it on the Web.
-
- [2] ABINIT : First-principles approach of materials and nanosystem properties.
- X. Gonze, B. Amadon, P.-M. Anglade, J.-M. Beuken, F. Bottin, P. Boulanger, F. Bruneval,
- D. Caliste, R. Caracas, M. Cote, T. Deutsch, L. Genovese, Ph. Ghosez, M. Giantomassi
- S. Goedecker, D.R. Hamann, P. Hermet, F. Jollet, G. Jomard, S. Leroux, M. Mancini, S. Mazevet,
- M.J.T. Oliveira, G. Onida, Y. Pouillon, T. Rangel, G.-M. Rignanese, D. Sangalli, R. Shaltaf,
- M. Torrent, M.J. Verstraete, G. Zerah, J.W. Zwanziger
- Computer Phys. Comm. 180, 2582-2615 (2009).
- Comment : the third generic paper describing the ABINIT project.
- Note that a version of this paper, that is not formatted for Computer Phys. Comm. 
- is available at http://www.abinit.org/about/ABINIT_CPC_v10.pdf .
- The licence allows the authors to put it on the Web.
-
- [3] A brief introduction to the ABINIT software package.
- X. Gonze, G.-M. Rignanese, M. Verstraete, J.-M. Beuken, Y. Pouillon, R. Caracas, F. Jollet,
- M. Torrent, G. Zerah, M. Mikami, Ph. Ghosez, M. Veithen, J.-Y. Raty, V. Olevano, F. Bruneval,
- L. Reining, R. Godby, G. Onida, D.R. Hamann, and D.C. Allan.
- Z. Kristallogr. 220, 558-562 (2005).
- Comment : the second generic paper describing the ABINIT project. Note that this paper
- should be cited especially if you are using the GW part of ABINIT, as several authors
- of this part are not in the list of authors of the first or third paper.
- The .pdf of the latter paper is available at http://www.abinit.org/about/zfk_0505-06_558-562.pdf.
- Note that it should not redistributed (Copyright by Oldenburg Wissenshaftverlag,
- the licence allows the authors to put it on the Web).
-
- And optionally:
-
- [4] First-principles computation of material properties : the ABINIT software project. 
- X. Gonze, J.-M. Beuken, R. Caracas, F. Detraux, M. Fuchs, G.-M. Rignanese, L. Sindic,
- M. Verstraete, G. Zerah, F. Jollet, M. Torrent, A. Roy, M. Mikami, Ph. Ghosez, J.-Y. Raty, D.C. Allan.
- Computational Materials Science 25, 478-492 (2002). http://dx.doi.org/10.1016/S0927-0256(02)00325-7
- Comment : the original paper describing the ABINIT project.
-
- Proc.   0 individual time (sec): cpu=       1717.7  wall=       1719.1

================================================================================

 Calculation completed.
.Delivered  42 WARNINGs and  32 COMMENTs to log file.
+Overall time at end (sec) : cpu=       1717.7  wall=       1719.1
