## SLURM PROLOG ###############################################################
##    Job ID : 19320932
##  Job Name : abinit_rfphon
##  Nodelist : node818
##      CPUs : 
##  Mem/Node : 49152 MB
## Directory : /gpfs/scratch/ssamanta/ENGN_2930/using_rfphon
##   Started : Thu Apr 26 12:06:24 EDT 2018
###############################################################################
module: loading 'abinit/8.0.7'
  ABINIT 8.0.7
  
  Give name for formatted input file: 
Si_in.txt
  Give name for formatted output file:
Si_out.txt
  Give root name for generic input files:
Si_i
  Give root name for generic output files:
Si_o
  Give root name for generic temporary files:
Si_

--- !COMMENT
src_file: isfile.F90
src_line: 107
message: |
    Output file Si_out.txt
     already exists.
...


--- !COMMENT
src_file: isfile.F90
src_line: 131
message: |
    Renaming old Si_out.txt to Si_out.txt0001
...


.Version 8.0.7 of ABINIT 
.(MPI version, prepared for a x86_64_linux_gnu4.9 computer) 

.Copyright (C) 1998-2016 ABINIT group . 
 ABINIT comes with ABSOLUTELY NO WARRANTY.
 It is free software, and you are welcome to redistribute it
 under certain conditions (GNU General Public License,
 see ~abinit/COPYING or http://www.gnu.org/copyleft/gpl.txt).

 ABINIT is a project of the Universite Catholique de Louvain,
 Corning Inc. and other collaborators, see ~abinit/doc/developers/contributors.txt .
 Please read ~abinit/doc/users/acknowledgments.html for suggested
 acknowledgments of the ABINIT effort.
 For more information, see http://www.abinit.org .

.Starting date : Thu 26 Apr 2018.
- ( at 12h06 )
  

 ++++++++++++++++++++++++++++++++++++++++++++++++++++++++++++++++++++++++++++++

 === Build Information === 
  Version       : 8.0.7
  Build target  : x86_64_linux_gnu4.9
  Build date    : 20160627

 === Compiler Suite === 
  C compiler       : gnu4.9
  C++ compiler     : gnu4.9
  Fortran compiler : gnu4.9
  CFLAGS           :  -g -O2 -mtune=native -march=native
  CXXFLAGS         :  -g -O2 -mtune=native -march=native
  FCFLAGS          :  -g -ffree-line-length-none
  FC_LDFLAGS       : 

 === Optimizations === 
  Debug level        : basic
  Optimization level : standard
  Architecture       : intel_xeon

 === Multicore === 
  Parallel build : yes
  Parallel I/O   : auto
  openMP support : no
  GPU support    : no

 === Connectors / Fallbacks === 
  Connectors on : yes
  Fallbacks on  : yes
  DFT flavor    : none
  FFT flavor    : none
  LINALG flavor : netlib-fallback
  MATH flavor   : none
  TIMER flavor  : abinit
  TRIO flavor   : none

 === Experimental features === 
  Bindings            : @enable_bindings@
  Exports             : no
  GW double-precision : no

 ++++++++++++++++++++++++++++++++++++++++++++++++++++++++++++++++++++++++++++++


 ++++++++++++++++++++++++++++++++++++++++++++++++++++++++++++++++++++++++++++++
 Default optimizations:
   -O2 -mtune=native -march=native


 Optimizations for 20_datashare:
   -O0


 ++++++++++++++++++++++++++++++++++++++++++++++++++++++++++++++++++++++++++++++


 ++++++++++++++++++++++++++++++++++++++++++++++++++++++++++++++++++++++++++++++
 CPP options activated during the build:

                    CC_GNU                   CXX_GNU                    FC_GNU
 
 HAVE_FC_ALLOCATABLE_DT...             HAVE_FC_ASYNC         HAVE_FC_BACKTRACE
 
  HAVE_FC_COMMAND_ARGUMENT      HAVE_FC_COMMAND_LINE        HAVE_FC_CONTIGUOUS
 
           HAVE_FC_CPUTIME              HAVE_FC_EXIT             HAVE_FC_FLUSH
 
             HAVE_FC_GAMMA            HAVE_FC_GETENV          HAVE_FC_INT_QUAD
 
             HAVE_FC_IOMSG     HAVE_FC_ISO_C_BINDING  HAVE_FC_ISO_FORTRAN_2008
 
        HAVE_FC_LONG_LINES        HAVE_FC_MOVE_ALLOC           HAVE_FC_PRIVATE
 
         HAVE_FC_PROTECTED         HAVE_FC_STREAM_IO            HAVE_FC_SYSTEM
 
          HAVE_FORTRAN2003        HAVE_LIBPAW_ABINIT      HAVE_LIBTETRA_ABINIT
 
                  HAVE_MPI                 HAVE_MPI1               HAVE_MPI_IO
 
 HAVE_MPI_TYPE_CREATE_S...                HAVE_NUMPY             HAVE_OS_LINUX
 
                HAVE_TIMER         HAVE_TIMER_ABINIT            HAVE_TIMER_MPI
 
         HAVE_TIMER_SERIAL              USE_MACROAVE                            
 ++++++++++++++++++++++++++++++++++++++++++++++++++++++++++++++++++++++++++++++

- input  file    -> Si_in.txt
- output file    -> Si_out.txt
- root for input  files -> Si_i
- root for output files -> Si_o

-instrng: 75 lines of input have been read from file Si_in.txt

  status : statnu, output_rate, shift_rate=           1           0           1
 level,routine=           3 init istatr   
 active(level)=           1
 counter,actual_counter(level,1:2)=           0           0           0
 List of active levels :
  Active level number=           3

 Please give name of formatted atomic psp file
 iofn2 : for atom type 1, psp file is 14si.txt
  read the values zionpsp=  4.0 , pspcod=   1 , lmax=   2

 inpspheads: deduce mpsang = 3, n1xccc = 2501.

 invars1m : enter jdtset= 1
 invars1 : treat image number: 1

 symlatt : the Bravais lattice is cF (face-centered cubic)
  xred   is defined in input file
 ingeo : takes atomic coordinates from input array xred

 symlatt : the Bravais lattice is cF (face-centered cubic)

 symlatt : the Bravais lattice is cF (face-centered cubic)
 symspgr : spgroup= 227  Fd -3 m   (=Oh^7)
 ingeo : angdeg(1:3)=   60.00000000   60.00000000   60.00000000
       Simple Lattice Grid
 invars2: take the default value of fband=  1.25000000E-01
       Simple Lattice Grid
 
 invars2 : Printing the k point grid (values of kptns - max 100 of them)
 nkpt=    2000
     ikpt istwfk    wtk       --------- reduced coordinates ---------  --------- cartesian coordinates ---------
       1     1  5.000000E-04 -5.000000E-02 -1.000000E-01  0.000000E+00 -4.901651E-03  4.901651E-03 -1.470495E-02
       2     1  5.000000E-04 -1.000000E-01 -5.000000E-02  0.000000E+00  4.901651E-03 -4.901651E-03 -1.470495E-02
       3     1  5.000000E-04 -5.000000E-02 -5.000000E-02  5.000000E-02  4.901651E-03  4.901651E-03 -1.470495E-02
       4     1  5.000000E-04 -5.000000E-02 -2.000000E-01  0.000000E+00 -1.470495E-02  1.470495E-02 -2.450825E-02
       5     1  5.000000E-04 -1.000000E-01 -1.500000E-01  0.000000E+00 -4.901651E-03  4.901651E-03 -2.450825E-02
       6     1  5.000000E-04 -5.000000E-02 -1.500000E-01  5.000000E-02 -4.901651E-03  1.470495E-02 -2.450825E-02
       7     1  5.000000E-04 -1.500000E-01 -1.000000E-01  0.000000E+00  4.901651E-03 -4.901651E-03 -2.450825E-02
       8     1  5.000000E-04 -1.000000E-01 -1.000000E-01  5.000000E-02  4.901651E-03  4.901651E-03 -2.450825E-02
       9     1  5.000000E-04 -5.000000E-02 -1.000000E-01  1.000000E-01  4.901651E-03  1.470495E-02 -2.450825E-02
      10     1  5.000000E-04 -2.000000E-01 -5.000000E-02  0.000000E+00  1.470495E-02 -1.470495E-02 -2.450825E-02
      11     1  5.000000E-04 -1.500000E-01 -5.000000E-02  5.000000E-02  1.470495E-02 -4.901651E-03 -2.450825E-02
      12     1  5.000000E-04 -1.000000E-01 -5.000000E-02  1.000000E-01  1.470495E-02  4.901651E-03 -2.450825E-02
      13     1  5.000000E-04 -5.000000E-02 -5.000000E-02  1.500000E-01  1.470495E-02  1.470495E-02 -2.450825E-02
      14     1  5.000000E-04 -5.000000E-02 -3.000000E-01  0.000000E+00 -2.450825E-02  2.450825E-02 -3.431155E-02
      15     1  5.000000E-04 -1.000000E-01 -2.500000E-01  0.000000E+00 -1.470495E-02  1.470495E-02 -3.431155E-02
      16     1  5.000000E-04 -5.000000E-02 -2.500000E-01  5.000000E-02 -1.470495E-02  2.450825E-02 -3.431155E-02
      17     1  5.000000E-04 -1.500000E-01 -2.000000E-01  0.000000E+00 -4.901651E-03  4.901651E-03 -3.431155E-02
      18     1  5.000000E-04 -1.000000E-01 -2.000000E-01  5.000000E-02 -4.901651E-03  1.470495E-02 -3.431155E-02
      19     1  5.000000E-04 -5.000000E-02 -2.000000E-01  1.000000E-01 -4.901651E-03  2.450825E-02 -3.431155E-02
      20     1  5.000000E-04 -2.000000E-01 -1.500000E-01  0.000000E+00  4.901651E-03 -4.901651E-03 -3.431155E-02
      21     1  5.000000E-04 -1.500000E-01 -1.500000E-01  5.000000E-02  4.901651E-03  4.901651E-03 -3.431155E-02
      22     1  5.000000E-04 -1.000000E-01 -1.500000E-01  1.000000E-01  4.901651E-03  1.470495E-02 -3.431155E-02
      23     1  5.000000E-04 -5.000000E-02 -1.500000E-01  1.500000E-01  4.901651E-03  2.450825E-02 -3.431155E-02
      24     1  5.000000E-04 -2.500000E-01 -1.000000E-01  0.000000E+00  1.470495E-02 -1.470495E-02 -3.431155E-02
      25     1  5.000000E-04 -2.000000E-01 -1.000000E-01  5.000000E-02  1.470495E-02 -4.901651E-03 -3.431155E-02
      26     1  5.000000E-04 -1.500000E-01 -1.000000E-01  1.000000E-01  1.470495E-02  4.901651E-03 -3.431155E-02
      27     1  5.000000E-04 -1.000000E-01 -1.000000E-01  1.500000E-01  1.470495E-02  1.470495E-02 -3.431155E-02
      28     1  5.000000E-04 -5.000000E-02 -1.000000E-01  2.000000E-01  1.470495E-02  2.450825E-02 -3.431155E-02
      29     1  5.000000E-04 -3.000000E-01 -5.000000E-02  0.000000E+00  2.450825E-02 -2.450825E-02 -3.431155E-02
      30     1  5.000000E-04 -2.500000E-01 -5.000000E-02  5.000000E-02  2.450825E-02 -1.470495E-02 -3.431155E-02
      31     1  5.000000E-04 -2.000000E-01 -5.000000E-02  1.000000E-01  2.450825E-02 -4.901651E-03 -3.431155E-02
      32     1  5.000000E-04 -1.500000E-01 -5.000000E-02  1.500000E-01  2.450825E-02  4.901651E-03 -3.431155E-02
      33     1  5.000000E-04 -1.000000E-01 -5.000000E-02  2.000000E-01  2.450825E-02  1.470495E-02 -3.431155E-02
      34     1  5.000000E-04 -5.000000E-02 -5.000000E-02  2.500000E-01  2.450825E-02  2.450825E-02 -3.431155E-02
      35     1  5.000000E-04 -5.000000E-02 -4.000000E-01  0.000000E+00 -3.431155E-02  3.431155E-02 -4.411486E-02
      36     1  5.000000E-04 -1.000000E-01 -3.500000E-01  0.000000E+00 -2.450825E-02  2.450825E-02 -4.411486E-02
      37     1  5.000000E-04 -5.000000E-02 -3.500000E-01  5.000000E-02 -2.450825E-02  3.431155E-02 -4.411486E-02
      38     1  5.000000E-04 -1.500000E-01 -3.000000E-01  0.000000E+00 -1.470495E-02  1.470495E-02 -4.411486E-02
      39     1  5.000000E-04 -1.000000E-01 -3.000000E-01  5.000000E-02 -1.470495E-02  2.450825E-02 -4.411486E-02
      40     1  5.000000E-04 -5.000000E-02 -3.000000E-01  1.000000E-01 -1.470495E-02  3.431155E-02 -4.411486E-02
      41     1  5.000000E-04 -2.000000E-01 -2.500000E-01  0.000000E+00 -4.901651E-03  4.901651E-03 -4.411486E-02
      42     1  5.000000E-04 -1.500000E-01 -2.500000E-01  5.000000E-02 -4.901651E-03  1.470495E-02 -4.411486E-02
      43     1  5.000000E-04 -1.000000E-01 -2.500000E-01  1.000000E-01 -4.901651E-03  2.450825E-02 -4.411486E-02
      44     1  5.000000E-04 -5.000000E-02 -2.500000E-01  1.500000E-01 -4.901651E-03  3.431155E-02 -4.411486E-02
      45     1  5.000000E-04 -2.500000E-01 -2.000000E-01  0.000000E+00  4.901651E-03 -4.901651E-03 -4.411486E-02
      46     1  5.000000E-04 -2.000000E-01 -2.000000E-01  5.000000E-02  4.901651E-03  4.901651E-03 -4.411486E-02
      47     1  5.000000E-04 -1.500000E-01 -2.000000E-01  1.000000E-01  4.901651E-03  1.470495E-02 -4.411486E-02
      48     1  5.000000E-04 -1.000000E-01 -2.000000E-01  1.500000E-01  4.901651E-03  2.450825E-02 -4.411486E-02
      49     1  5.000000E-04 -5.000000E-02 -2.000000E-01  2.000000E-01  4.901651E-03  3.431155E-02 -4.411486E-02
      50     1  5.000000E-04 -3.000000E-01 -1.500000E-01  0.000000E+00  1.470495E-02 -1.470495E-02 -4.411486E-02
      51     1  5.000000E-04 -2.500000E-01 -1.500000E-01  5.000000E-02  1.470495E-02 -4.901651E-03 -4.411486E-02
      52     1  5.000000E-04 -2.000000E-01 -1.500000E-01  1.000000E-01  1.470495E-02  4.901651E-03 -4.411486E-02
      53     1  5.000000E-04 -1.500000E-01 -1.500000E-01  1.500000E-01  1.470495E-02  1.470495E-02 -4.411486E-02
      54     1  5.000000E-04 -1.000000E-01 -1.500000E-01  2.000000E-01  1.470495E-02  2.450825E-02 -4.411486E-02
      55     1  5.000000E-04 -5.000000E-02 -1.500000E-01  2.500000E-01  1.470495E-02  3.431155E-02 -4.411486E-02
      56     1  5.000000E-04 -3.500000E-01 -1.000000E-01  0.000000E+00  2.450825E-02 -2.450825E-02 -4.411486E-02
      57     1  5.000000E-04 -3.000000E-01 -1.000000E-01  5.000000E-02  2.450825E-02 -1.470495E-02 -4.411486E-02
      58     1  5.000000E-04 -2.500000E-01 -1.000000E-01  1.000000E-01  2.450825E-02 -4.901651E-03 -4.411486E-02
      59     1  5.000000E-04 -2.000000E-01 -1.000000E-01  1.500000E-01  2.450825E-02  4.901651E-03 -4.411486E-02
      60     1  5.000000E-04 -1.500000E-01 -1.000000E-01  2.000000E-01  2.450825E-02  1.470495E-02 -4.411486E-02
      61     1  5.000000E-04 -1.000000E-01 -1.000000E-01  2.500000E-01  2.450825E-02  2.450825E-02 -4.411486E-02
      62     1  5.000000E-04 -5.000000E-02 -1.000000E-01  3.000000E-01  2.450825E-02  3.431155E-02 -4.411486E-02
      63     1  5.000000E-04 -4.000000E-01 -5.000000E-02  0.000000E+00  3.431155E-02 -3.431155E-02 -4.411486E-02
      64     1  5.000000E-04 -3.500000E-01 -5.000000E-02  5.000000E-02  3.431155E-02 -2.450825E-02 -4.411486E-02
      65     1  5.000000E-04 -3.000000E-01 -5.000000E-02  1.000000E-01  3.431155E-02 -1.470495E-02 -4.411486E-02
      66     1  5.000000E-04 -2.500000E-01 -5.000000E-02  1.500000E-01  3.431155E-02 -4.901651E-03 -4.411486E-02
      67     1  5.000000E-04 -2.000000E-01 -5.000000E-02  2.000000E-01  3.431155E-02  4.901651E-03 -4.411486E-02
      68     1  5.000000E-04 -1.500000E-01 -5.000000E-02  2.500000E-01  3.431155E-02  1.470495E-02 -4.411486E-02
      69     1  5.000000E-04 -1.000000E-01 -5.000000E-02  3.000000E-01  3.431155E-02  2.450825E-02 -4.411486E-02
      70     1  5.000000E-04 -5.000000E-02 -5.000000E-02  3.500000E-01  3.431155E-02  3.431155E-02 -4.411486E-02
      71     1  5.000000E-04 -5.000000E-02  5.000000E-01  0.000000E+00  5.391816E-02 -5.391816E-02  4.411486E-02
      72     1  5.000000E-04 -1.000000E-01 -4.500000E-01  0.000000E+00 -3.431155E-02  3.431155E-02 -5.391816E-02
      73     1  5.000000E-04 -5.000000E-02 -4.500000E-01  5.000000E-02 -3.431155E-02  4.411486E-02 -5.391816E-02
      74     1  5.000000E-04 -1.500000E-01 -4.000000E-01  0.000000E+00 -2.450825E-02  2.450825E-02 -5.391816E-02
      75     1  5.000000E-04 -1.000000E-01 -4.000000E-01  5.000000E-02 -2.450825E-02  3.431155E-02 -5.391816E-02
      76     1  5.000000E-04 -5.000000E-02 -4.000000E-01  1.000000E-01 -2.450825E-02  4.411486E-02 -5.391816E-02
      77     1  5.000000E-04 -2.000000E-01 -3.500000E-01  0.000000E+00 -1.470495E-02  1.470495E-02 -5.391816E-02
      78     1  5.000000E-04 -1.500000E-01 -3.500000E-01  5.000000E-02 -1.470495E-02  2.450825E-02 -5.391816E-02
      79     1  5.000000E-04 -1.000000E-01 -3.500000E-01  1.000000E-01 -1.470495E-02  3.431155E-02 -5.391816E-02
      80     1  5.000000E-04 -5.000000E-02 -3.500000E-01  1.500000E-01 -1.470495E-02  4.411486E-02 -5.391816E-02
      81     1  5.000000E-04 -2.500000E-01 -3.000000E-01  0.000000E+00 -4.901651E-03  4.901651E-03 -5.391816E-02
      82     1  5.000000E-04 -2.000000E-01 -3.000000E-01  5.000000E-02 -4.901651E-03  1.470495E-02 -5.391816E-02
      83     1  5.000000E-04 -1.500000E-01 -3.000000E-01  1.000000E-01 -4.901651E-03  2.450825E-02 -5.391816E-02
      84     1  5.000000E-04 -1.000000E-01 -3.000000E-01  1.500000E-01 -4.901651E-03  3.431155E-02 -5.391816E-02
      85     1  5.000000E-04 -5.000000E-02 -3.000000E-01  2.000000E-01 -4.901651E-03  4.411486E-02 -5.391816E-02
      86     1  5.000000E-04 -3.000000E-01 -2.500000E-01  0.000000E+00  4.901651E-03 -4.901651E-03 -5.391816E-02
      87     1  5.000000E-04 -2.500000E-01 -2.500000E-01  5.000000E-02  4.901651E-03  4.901651E-03 -5.391816E-02
      88     1  5.000000E-04 -2.000000E-01 -2.500000E-01  1.000000E-01  4.901651E-03  1.470495E-02 -5.391816E-02
      89     1  5.000000E-04 -1.500000E-01 -2.500000E-01  1.500000E-01  4.901651E-03  2.450825E-02 -5.391816E-02
      90     1  5.000000E-04 -1.000000E-01 -2.500000E-01  2.000000E-01  4.901651E-03  3.431155E-02 -5.391816E-02
      91     1  5.000000E-04 -5.000000E-02 -2.500000E-01  2.500000E-01  4.901651E-03  4.411486E-02 -5.391816E-02
      92     1  5.000000E-04 -3.500000E-01 -2.000000E-01  0.000000E+00  1.470495E-02 -1.470495E-02 -5.391816E-02
      93     1  5.000000E-04 -3.000000E-01 -2.000000E-01  5.000000E-02  1.470495E-02 -4.901651E-03 -5.391816E-02
      94     1  5.000000E-04 -2.500000E-01 -2.000000E-01  1.000000E-01  1.470495E-02  4.901651E-03 -5.391816E-02
      95     1  5.000000E-04 -2.000000E-01 -2.000000E-01  1.500000E-01  1.470495E-02  1.470495E-02 -5.391816E-02
      96     1  5.000000E-04 -1.500000E-01 -2.000000E-01  2.000000E-01  1.470495E-02  2.450825E-02 -5.391816E-02
      97     1  5.000000E-04 -1.000000E-01 -2.000000E-01  2.500000E-01  1.470495E-02  3.431155E-02 -5.391816E-02
      98     1  5.000000E-04 -5.000000E-02 -2.000000E-01  3.000000E-01  1.470495E-02  4.411486E-02 -5.391816E-02
      99     1  5.000000E-04 -4.000000E-01 -1.500000E-01  0.000000E+00  2.450825E-02 -2.450825E-02 -5.391816E-02
     100     1  5.000000E-04 -3.500000E-01 -1.500000E-01  5.000000E-02  2.450825E-02 -1.470495E-02 -5.391816E-02
 
 invars2 : Printing the k point grid from kptrlatt, shifted with shiftk and qptn, in the full Brillouin zone.
   Maximum 100 of them. No use of symmetries
 nkpt_fullbz=    4000
     ikpt      --------------- reduced coordinates ---------------  --------- cartesian coordinates ---------
       1      -5.0000000000E-02 -1.0000000000E-01  0.0000000000E+00 -4.901651E-03  4.901651E-03 -1.470495E-02
       2      -1.0000000000E-01 -5.0000000000E-02  0.0000000000E+00  4.901651E-03 -4.901651E-03 -1.470495E-02
       3      -5.0000000000E-02 -5.0000000000E-02  5.0000000000E-02  4.901651E-03  4.901651E-03 -1.470495E-02
       4      -5.0000000000E-02 -2.0000000000E-01  0.0000000000E+00 -1.470495E-02  1.470495E-02 -2.450825E-02
       5      -1.0000000000E-01 -1.5000000000E-01  0.0000000000E+00 -4.901651E-03  4.901651E-03 -2.450825E-02
       6      -5.0000000000E-02 -1.5000000000E-01  5.0000000000E-02 -4.901651E-03  1.470495E-02 -2.450825E-02
       7      -1.5000000000E-01 -1.0000000000E-01  0.0000000000E+00  4.901651E-03 -4.901651E-03 -2.450825E-02
       8      -1.0000000000E-01 -1.0000000000E-01  5.0000000000E-02  4.901651E-03  4.901651E-03 -2.450825E-02
       9      -5.0000000000E-02 -1.0000000000E-01  1.0000000000E-01  4.901651E-03  1.470495E-02 -2.450825E-02
      10      -2.0000000000E-01 -5.0000000000E-02  0.0000000000E+00  1.470495E-02 -1.470495E-02 -2.450825E-02
      11      -1.5000000000E-01 -5.0000000000E-02  5.0000000000E-02  1.470495E-02 -4.901651E-03 -2.450825E-02
      12      -1.0000000000E-01 -5.0000000000E-02  1.0000000000E-01  1.470495E-02  4.901651E-03 -2.450825E-02
      13      -5.0000000000E-02 -5.0000000000E-02  1.5000000000E-01  1.470495E-02  1.470495E-02 -2.450825E-02
      14      -5.0000000000E-02 -3.0000000000E-01  0.0000000000E+00 -2.450825E-02  2.450825E-02 -3.431155E-02
      15      -1.0000000000E-01 -2.5000000000E-01  0.0000000000E+00 -1.470495E-02  1.470495E-02 -3.431155E-02
      16      -5.0000000000E-02 -2.5000000000E-01  5.0000000000E-02 -1.470495E-02  2.450825E-02 -3.431155E-02
      17      -1.5000000000E-01 -2.0000000000E-01  0.0000000000E+00 -4.901651E-03  4.901651E-03 -3.431155E-02
      18      -1.0000000000E-01 -2.0000000000E-01  5.0000000000E-02 -4.901651E-03  1.470495E-02 -3.431155E-02
      19      -5.0000000000E-02 -2.0000000000E-01  1.0000000000E-01 -4.901651E-03  2.450825E-02 -3.431155E-02
      20      -2.0000000000E-01 -1.5000000000E-01  0.0000000000E+00  4.901651E-03 -4.901651E-03 -3.431155E-02
      21      -1.5000000000E-01 -1.5000000000E-01  5.0000000000E-02  4.901651E-03  4.901651E-03 -3.431155E-02
      22      -1.0000000000E-01 -1.5000000000E-01  1.0000000000E-01  4.901651E-03  1.470495E-02 -3.431155E-02
      23      -5.0000000000E-02 -1.5000000000E-01  1.5000000000E-01  4.901651E-03  2.450825E-02 -3.431155E-02
      24      -2.5000000000E-01 -1.0000000000E-01  0.0000000000E+00  1.470495E-02 -1.470495E-02 -3.431155E-02
      25      -2.0000000000E-01 -1.0000000000E-01  5.0000000000E-02  1.470495E-02 -4.901651E-03 -3.431155E-02
      26      -1.5000000000E-01 -1.0000000000E-01  1.0000000000E-01  1.470495E-02  4.901651E-03 -3.431155E-02
      27      -1.0000000000E-01 -1.0000000000E-01  1.5000000000E-01  1.470495E-02  1.470495E-02 -3.431155E-02
      28      -5.0000000000E-02 -1.0000000000E-01  2.0000000000E-01  1.470495E-02  2.450825E-02 -3.431155E-02
      29      -3.0000000000E-01 -5.0000000000E-02  0.0000000000E+00  2.450825E-02 -2.450825E-02 -3.431155E-02
      30      -2.5000000000E-01 -5.0000000000E-02  5.0000000000E-02  2.450825E-02 -1.470495E-02 -3.431155E-02
      31      -2.0000000000E-01 -5.0000000000E-02  1.0000000000E-01  2.450825E-02 -4.901651E-03 -3.431155E-02
      32      -1.5000000000E-01 -5.0000000000E-02  1.5000000000E-01  2.450825E-02  4.901651E-03 -3.431155E-02
      33      -1.0000000000E-01 -5.0000000000E-02  2.0000000000E-01  2.450825E-02  1.470495E-02 -3.431155E-02
      34      -5.0000000000E-02 -5.0000000000E-02  2.5000000000E-01  2.450825E-02  2.450825E-02 -3.431155E-02
      35      -5.0000000000E-02 -4.0000000000E-01  0.0000000000E+00 -3.431155E-02  3.431155E-02 -4.411486E-02
      36      -1.0000000000E-01 -3.5000000000E-01  0.0000000000E+00 -2.450825E-02  2.450825E-02 -4.411486E-02
      37      -5.0000000000E-02 -3.5000000000E-01  5.0000000000E-02 -2.450825E-02  3.431155E-02 -4.411486E-02
      38      -1.5000000000E-01 -3.0000000000E-01  0.0000000000E+00 -1.470495E-02  1.470495E-02 -4.411486E-02
      39      -1.0000000000E-01 -3.0000000000E-01  5.0000000000E-02 -1.470495E-02  2.450825E-02 -4.411486E-02
      40      -5.0000000000E-02 -3.0000000000E-01  1.0000000000E-01 -1.470495E-02  3.431155E-02 -4.411486E-02
      41      -2.0000000000E-01 -2.5000000000E-01  0.0000000000E+00 -4.901651E-03  4.901651E-03 -4.411486E-02
      42      -1.5000000000E-01 -2.5000000000E-01  5.0000000000E-02 -4.901651E-03  1.470495E-02 -4.411486E-02
      43      -1.0000000000E-01 -2.5000000000E-01  1.0000000000E-01 -4.901651E-03  2.450825E-02 -4.411486E-02
      44      -5.0000000000E-02 -2.5000000000E-01  1.5000000000E-01 -4.901651E-03  3.431155E-02 -4.411486E-02
      45      -2.5000000000E-01 -2.0000000000E-01  0.0000000000E+00  4.901651E-03 -4.901651E-03 -4.411486E-02
      46      -2.0000000000E-01 -2.0000000000E-01  5.0000000000E-02  4.901651E-03  4.901651E-03 -4.411486E-02
      47      -1.5000000000E-01 -2.0000000000E-01  1.0000000000E-01  4.901651E-03  1.470495E-02 -4.411486E-02
      48      -1.0000000000E-01 -2.0000000000E-01  1.5000000000E-01  4.901651E-03  2.450825E-02 -4.411486E-02
      49      -5.0000000000E-02 -2.0000000000E-01  2.0000000000E-01  4.901651E-03  3.431155E-02 -4.411486E-02
      50      -3.0000000000E-01 -1.5000000000E-01  0.0000000000E+00  1.470495E-02 -1.470495E-02 -4.411486E-02
      51      -2.5000000000E-01 -1.5000000000E-01  5.0000000000E-02  1.470495E-02 -4.901651E-03 -4.411486E-02
      52      -2.0000000000E-01 -1.5000000000E-01  1.0000000000E-01  1.470495E-02  4.901651E-03 -4.411486E-02
      53      -1.5000000000E-01 -1.5000000000E-01  1.5000000000E-01  1.470495E-02  1.470495E-02 -4.411486E-02
      54      -1.0000000000E-01 -1.5000000000E-01  2.0000000000E-01  1.470495E-02  2.450825E-02 -4.411486E-02
      55      -5.0000000000E-02 -1.5000000000E-01  2.5000000000E-01  1.470495E-02  3.431155E-02 -4.411486E-02
      56      -3.5000000000E-01 -1.0000000000E-01  0.0000000000E+00  2.450825E-02 -2.450825E-02 -4.411486E-02
      57      -3.0000000000E-01 -1.0000000000E-01  5.0000000000E-02  2.450825E-02 -1.470495E-02 -4.411486E-02
      58      -2.5000000000E-01 -1.0000000000E-01  1.0000000000E-01  2.450825E-02 -4.901651E-03 -4.411486E-02
      59      -2.0000000000E-01 -1.0000000000E-01  1.5000000000E-01  2.450825E-02  4.901651E-03 -4.411486E-02
      60      -1.5000000000E-01 -1.0000000000E-01  2.0000000000E-01  2.450825E-02  1.470495E-02 -4.411486E-02
      61      -1.0000000000E-01 -1.0000000000E-01  2.5000000000E-01  2.450825E-02  2.450825E-02 -4.411486E-02
      62      -5.0000000000E-02 -1.0000000000E-01  3.0000000000E-01  2.450825E-02  3.431155E-02 -4.411486E-02
      63      -4.0000000000E-01 -5.0000000000E-02  0.0000000000E+00  3.431155E-02 -3.431155E-02 -4.411486E-02
      64      -3.5000000000E-01 -5.0000000000E-02  5.0000000000E-02  3.431155E-02 -2.450825E-02 -4.411486E-02
      65      -3.0000000000E-01 -5.0000000000E-02  1.0000000000E-01  3.431155E-02 -1.470495E-02 -4.411486E-02
      66      -2.5000000000E-01 -5.0000000000E-02  1.5000000000E-01  3.431155E-02 -4.901651E-03 -4.411486E-02
      67      -2.0000000000E-01 -5.0000000000E-02  2.0000000000E-01  3.431155E-02  4.901651E-03 -4.411486E-02
      68      -1.5000000000E-01 -5.0000000000E-02  2.5000000000E-01  3.431155E-02  1.470495E-02 -4.411486E-02
      69      -1.0000000000E-01 -5.0000000000E-02  3.0000000000E-01  3.431155E-02  2.450825E-02 -4.411486E-02
      70      -5.0000000000E-02 -5.0000000000E-02  3.5000000000E-01  3.431155E-02  3.431155E-02 -4.411486E-02
      71      -5.0000000000E-02  5.0000000000E-01  0.0000000000E+00  5.391816E-02 -5.391816E-02  4.411486E-02
      72      -1.0000000000E-01 -4.5000000000E-01  0.0000000000E+00 -3.431155E-02  3.431155E-02 -5.391816E-02
      73      -5.0000000000E-02 -4.5000000000E-01  5.0000000000E-02 -3.431155E-02  4.411486E-02 -5.391816E-02
      74      -1.5000000000E-01 -4.0000000000E-01  0.0000000000E+00 -2.450825E-02  2.450825E-02 -5.391816E-02
      75      -1.0000000000E-01 -4.0000000000E-01  5.0000000000E-02 -2.450825E-02  3.431155E-02 -5.391816E-02
      76      -5.0000000000E-02 -4.0000000000E-01  1.0000000000E-01 -2.450825E-02  4.411486E-02 -5.391816E-02
      77      -2.0000000000E-01 -3.5000000000E-01  0.0000000000E+00 -1.470495E-02  1.470495E-02 -5.391816E-02
      78      -1.5000000000E-01 -3.5000000000E-01  5.0000000000E-02 -1.470495E-02  2.450825E-02 -5.391816E-02
      79      -1.0000000000E-01 -3.5000000000E-01  1.0000000000E-01 -1.470495E-02  3.431155E-02 -5.391816E-02
      80      -5.0000000000E-02 -3.5000000000E-01  1.5000000000E-01 -1.470495E-02  4.411486E-02 -5.391816E-02
      81      -2.5000000000E-01 -3.0000000000E-01  0.0000000000E+00 -4.901651E-03  4.901651E-03 -5.391816E-02
      82      -2.0000000000E-01 -3.0000000000E-01  5.0000000000E-02 -4.901651E-03  1.470495E-02 -5.391816E-02
      83      -1.5000000000E-01 -3.0000000000E-01  1.0000000000E-01 -4.901651E-03  2.450825E-02 -5.391816E-02
      84      -1.0000000000E-01 -3.0000000000E-01  1.5000000000E-01 -4.901651E-03  3.431155E-02 -5.391816E-02
      85      -5.0000000000E-02 -3.0000000000E-01  2.0000000000E-01 -4.901651E-03  4.411486E-02 -5.391816E-02
      86      -3.0000000000E-01 -2.5000000000E-01  0.0000000000E+00  4.901651E-03 -4.901651E-03 -5.391816E-02
      87      -2.5000000000E-01 -2.5000000000E-01  5.0000000000E-02  4.901651E-03  4.901651E-03 -5.391816E-02
      88      -2.0000000000E-01 -2.5000000000E-01  1.0000000000E-01  4.901651E-03  1.470495E-02 -5.391816E-02
      89      -1.5000000000E-01 -2.5000000000E-01  1.5000000000E-01  4.901651E-03  2.450825E-02 -5.391816E-02
      90      -1.0000000000E-01 -2.5000000000E-01  2.0000000000E-01  4.901651E-03  3.431155E-02 -5.391816E-02
      91      -5.0000000000E-02 -2.5000000000E-01  2.5000000000E-01  4.901651E-03  4.411486E-02 -5.391816E-02
      92      -3.5000000000E-01 -2.0000000000E-01  0.0000000000E+00  1.470495E-02 -1.470495E-02 -5.391816E-02
      93      -3.0000000000E-01 -2.0000000000E-01  5.0000000000E-02  1.470495E-02 -4.901651E-03 -5.391816E-02
      94      -2.5000000000E-01 -2.0000000000E-01  1.0000000000E-01  1.470495E-02  4.901651E-03 -5.391816E-02
      95      -2.0000000000E-01 -2.0000000000E-01  1.5000000000E-01  1.470495E-02  1.470495E-02 -5.391816E-02
      96      -1.5000000000E-01 -2.0000000000E-01  2.0000000000E-01  1.470495E-02  2.450825E-02 -5.391816E-02
      97      -1.0000000000E-01 -2.0000000000E-01  2.5000000000E-01  1.470495E-02  3.431155E-02 -5.391816E-02
      98      -5.0000000000E-02 -2.0000000000E-01  3.0000000000E-01  1.470495E-02  4.411486E-02 -5.391816E-02
      99      -4.0000000000E-01 -1.5000000000E-01  0.0000000000E+00  2.450825E-02 -2.450825E-02 -5.391816E-02
     100      -3.5000000000E-01 -1.5000000000E-01  5.0000000000E-02  2.450825E-02 -1.470495E-02 -5.391816E-02
 

  chkneu : enter, dtset%nelect=   8.0000000000000000     
  occopt,dtset%nsppol,dtset%nspden=           1           1           1
  maxocc,nocc,occlast=   2.0000000000000000                4   2.0000000000000000     
 chkneu : initialized the occupation numbers for occopt=    1, spin-unpolarized or antiferromagnetic case :
  2.00  2.00  2.00  2.00  0.00
mpi_setup: mkmem  undefined in the input file.Use default mkmem  = nkpt
 mpi_setup: With nkpt_me=2000 and mkmem  = 2000, ground state wf handled in core.
mpi_setup: mkqmem undefined in the input file.Use default mkqmem = nkpt
 mpi_setup: With nkpt_me=2000 and mkqmem = 2000, ground state wf handled in core.
mpi_setup: mk1mem undefined in the input file.Use default mk1mem = nkpt
 mpi_setup: With nkpt_me=2000 and mk1mem = 2000, ground state wf handled in core.
 For input ecut=  5.512500E+01 best grid ngfft=      50      50      50
       max ecut=  5.932964E+01

 ==== FFT mesh ====
  FFT mesh divisions ........................    50   50   50
  Augmented FFT divisions ...................    51   51   50
  FFT algorithm .............................   112
  FFT cache size ............................    16
 getmpw: optimal value of mpw= 5203
 getmpw: optimal value of mpw= 5203

 DATASET    1 : space group Fd -3 m (#227); Bravais cF (face-center cubic)

 getdim_nloc : deduce lmnmax  =   4, lnmax  =   2,
                      lmnmaxso=   4, lnmaxso=   2.
 memorf : analysis of memory needs
================================================================================
 Values of the parameters that define the memory need for DATASET  1 (RF).
     intxc =       0      iscf =       7    lmnmax =       2     lnmax =       2
     mgfft =      50  mpssoang =       3    mqgrid =    3001     natom =       2
  nloc_mem =       1    nspden =       1   nspinor =       1    nsppol =       1
      nsym =      48    n1xccc =    2501    ntypat =       1    occopt =       1
   xclevel =       1
-    mband =           5        mffmem =           1         mkmem =        2000
-   mkqmem =        2000        mk1mem =        2000           mpw =        5203
      nfft =      125000          nkpt =        2000
================================================================================
P This job should need less than                    2648.660 Mbytes of memory.
  Rough estimation (10% accuracy) of disk space for files :
_ WF disk file :    793.917 Mbytes ; DEN or POT disk file :      0.956 Mbytes.
================================================================================

 Biggest array : cg(disk), with    793.9168 MBytes.
 memana : allocated an array of    793.917 Mbytes, for testing purposes.
 memana: allocated    2648.660Mbytes, for testing purposes. 
 The job will continue.
--------------------------------------------------------------------------------
------------- Echo of variables that govern the present computation ------------
--------------------------------------------------------------------------------
-
- outvars: echo of selected default values                                      
-   iomode0 =  0 , fftalg0 =112 , wfoptalg0 =  0
-
- outvars: echo of global parameters not present in the input file              
-  max_nthreads =    0
-
 -outvars: echo values of preprocessed input variables --------
            acell      1.0200645510E+01  1.0200645510E+01  1.0200645510E+01 Bohr
              amu      2.80855000E+01
           diemac      1.20000000E+01
          dilatmx      1.05000000E+00
             ecut      5.00000000E+01 Hartree
           ecutsm      5.00000000E-01 Hartree
-          fftalg         112
           irdwfk           1
           jdtset        1
              kpt     -5.00000000E-02 -1.00000000E-01  0.00000000E+00
                      -1.00000000E-01 -5.00000000E-02  0.00000000E+00
                      -5.00000000E-02 -5.00000000E-02  5.00000000E-02
                      -5.00000000E-02 -2.00000000E-01  0.00000000E+00
                      -1.00000000E-01 -1.50000000E-01  0.00000000E+00
                      -5.00000000E-02 -1.50000000E-01  5.00000000E-02
                      -1.50000000E-01 -1.00000000E-01  0.00000000E+00
                      -1.00000000E-01 -1.00000000E-01  5.00000000E-02
                      -5.00000000E-02 -1.00000000E-01  1.00000000E-01
                      -2.00000000E-01 -5.00000000E-02  0.00000000E+00
                      -1.50000000E-01 -5.00000000E-02  5.00000000E-02
                      -1.00000000E-01 -5.00000000E-02  1.00000000E-01
                      -5.00000000E-02 -5.00000000E-02  1.50000000E-01
                      -5.00000000E-02 -3.00000000E-01  0.00000000E+00
                      -1.00000000E-01 -2.50000000E-01  0.00000000E+00
                      -5.00000000E-02 -2.50000000E-01  5.00000000E-02
                      -1.50000000E-01 -2.00000000E-01  0.00000000E+00
                      -1.00000000E-01 -2.00000000E-01  5.00000000E-02
                      -5.00000000E-02 -2.00000000E-01  1.00000000E-01
                      -2.00000000E-01 -1.50000000E-01  0.00000000E+00
                      -1.50000000E-01 -1.50000000E-01  5.00000000E-02
                      -1.00000000E-01 -1.50000000E-01  1.00000000E-01
                      -5.00000000E-02 -1.50000000E-01  1.50000000E-01
                      -2.50000000E-01 -1.00000000E-01  0.00000000E+00
                      -2.00000000E-01 -1.00000000E-01  5.00000000E-02
                      -1.50000000E-01 -1.00000000E-01  1.00000000E-01
                      -1.00000000E-01 -1.00000000E-01  1.50000000E-01
                      -5.00000000E-02 -1.00000000E-01  2.00000000E-01
                      -3.00000000E-01 -5.00000000E-02  0.00000000E+00
                      -2.50000000E-01 -5.00000000E-02  5.00000000E-02
                      -2.00000000E-01 -5.00000000E-02  1.00000000E-01
                      -1.50000000E-01 -5.00000000E-02  1.50000000E-01
                      -1.00000000E-01 -5.00000000E-02  2.00000000E-01
                      -5.00000000E-02 -5.00000000E-02  2.50000000E-01
                      -5.00000000E-02 -4.00000000E-01  0.00000000E+00
                      -1.00000000E-01 -3.50000000E-01  0.00000000E+00
                      -5.00000000E-02 -3.50000000E-01  5.00000000E-02
                      -1.50000000E-01 -3.00000000E-01  0.00000000E+00
                      -1.00000000E-01 -3.00000000E-01  5.00000000E-02
                      -5.00000000E-02 -3.00000000E-01  1.00000000E-01
                      -2.00000000E-01 -2.50000000E-01  0.00000000E+00
                      -1.50000000E-01 -2.50000000E-01  5.00000000E-02
                      -1.00000000E-01 -2.50000000E-01  1.00000000E-01
                      -5.00000000E-02 -2.50000000E-01  1.50000000E-01
                      -2.50000000E-01 -2.00000000E-01  0.00000000E+00
                      -2.00000000E-01 -2.00000000E-01  5.00000000E-02
                      -1.50000000E-01 -2.00000000E-01  1.00000000E-01
                      -1.00000000E-01 -2.00000000E-01  1.50000000E-01
                      -5.00000000E-02 -2.00000000E-01  2.00000000E-01
                      -3.00000000E-01 -1.50000000E-01  0.00000000E+00
                       outvar_i_n : Printing only first  50 k-points.
           kptopt           2
         kptrlatt       10  -10   10    -10   10   10    -10  -10   10
          kptrlen      1.02006455E+02
P           mkmem        2000
P          mkqmem        2000
P          mk1mem        2000
            natom           2
            nband           5
           ndtset           1
            ngfft          50      50      50
             nkpt        2000
             nqpt           1
            nstep          10
             nsym          48
            ntime          10
           ntypat           1
              occ      2.000000  2.000000  2.000000  2.000000  0.000000
        optdriver           1
          rfatpol           1       2
            rfdir           1       1       1
           rfphon           1
            rprim      0.0000000000E+00  5.0000000000E-01  5.0000000000E-01
                       5.0000000000E-01  0.0000000000E+00  5.0000000000E-01
                       5.0000000000E-01  5.0000000000E-01  0.0000000000E+00
           shiftk      5.00000000E-01  5.00000000E-01  5.00000000E-01
          spgroup         227
           symrel      1  0  0   0  1  0   0  0  1      -1  0  0   0 -1  0   0  0 -1
                       0 -1  1   0 -1  0   1 -1  0       0  1 -1   0  1  0  -1  1  0
                      -1  0  0  -1  0  1  -1  1  0       1  0  0   1  0 -1   1 -1  0
                       0  1 -1   1  0 -1   0  0 -1       0 -1  1  -1  0  1   0  0  1
                      -1  0  0  -1  1  0  -1  0  1       1  0  0   1 -1  0   1  0 -1
                       0 -1  1   1 -1  0   0 -1  0       0  1 -1  -1  1  0   0  1  0
                       1  0  0   0  0  1   0  1  0      -1  0  0   0  0 -1   0 -1  0
                       0  1 -1   0  0 -1   1  0 -1       0 -1  1   0  0  1  -1  0  1
                      -1  0  1  -1  1  0  -1  0  0       1  0 -1   1 -1  0   1  0  0
                       0 -1  0   1 -1  0   0 -1  1       0  1  0  -1  1  0   0  1 -1
                       1  0 -1   0  0 -1   0  1 -1      -1  0  1   0  0  1   0 -1  1
                       0  1  0   0  0  1   1  0  0       0 -1  0   0  0 -1  -1  0  0
                       1  0 -1   0  1 -1   0  0 -1      -1  0  1   0 -1  1   0  0  1
                       0 -1  0   0 -1  1   1 -1  0       0  1  0   0  1 -1  -1  1  0
                      -1  0  1  -1  0  0  -1  1  0       1  0 -1   1  0  0   1 -1  0
                       0  1  0   1  0  0   0  0  1       0 -1  0  -1  0  0   0  0 -1
                       0  0 -1   0  1 -1   1  0 -1       0  0  1   0 -1  1  -1  0  1
                       1 -1  0   0 -1  1   0 -1  0      -1  1  0   0  1 -1   0  1  0
                       0  0  1   1  0  0   0  1  0       0  0 -1  -1  0  0   0 -1  0
                      -1  1  0  -1  0  0  -1  0  1       1 -1  0   1  0  0   1  0 -1
                       0  0  1   0  1  0   1  0  0       0  0 -1   0 -1  0  -1  0  0
                       1 -1  0   0 -1  0   0 -1  1      -1  1  0   0  1  0   0  1 -1
                       0  0 -1   1  0 -1   0  1 -1       0  0  1  -1  0  1   0 -1  1
                      -1  1  0  -1  0  1  -1  0  0       1 -1  0   1  0 -1   1  0  0
            tnons      0.0000000  0.0000000  0.0000000     0.2500000  0.2500000  0.2500000
                       0.0000000  0.0000000  0.0000000     0.2500000  0.2500000  0.2500000
                       0.0000000  0.0000000  0.0000000     0.2500000  0.2500000  0.2500000
                       0.0000000  0.0000000  0.0000000     0.2500000  0.2500000  0.2500000
                       0.0000000  0.0000000  0.0000000     0.2500000  0.2500000  0.2500000
                       0.0000000  0.0000000  0.0000000     0.2500000  0.2500000  0.2500000
                       0.0000000  0.0000000  0.0000000     0.2500000  0.2500000  0.2500000
                       0.0000000  0.0000000  0.0000000     0.2500000  0.2500000  0.2500000
                       0.0000000  0.0000000  0.0000000     0.2500000  0.2500000  0.2500000
                       0.0000000  0.0000000  0.0000000     0.2500000  0.2500000  0.2500000
                       0.0000000  0.0000000  0.0000000     0.2500000  0.2500000  0.2500000
                       0.0000000  0.0000000  0.0000000     0.2500000  0.2500000  0.2500000
                       0.0000000  0.0000000  0.0000000     0.2500000  0.2500000  0.2500000
                       0.0000000  0.0000000  0.0000000     0.2500000  0.2500000  0.2500000
                       0.0000000  0.0000000  0.0000000     0.2500000  0.2500000  0.2500000
                       0.0000000  0.0000000  0.0000000     0.2500000  0.2500000  0.2500000
                       0.0000000  0.0000000  0.0000000     0.2500000  0.2500000  0.2500000
                       0.0000000  0.0000000  0.0000000     0.2500000  0.2500000  0.2500000
                       0.0000000  0.0000000  0.0000000     0.2500000  0.2500000  0.2500000
                       0.0000000  0.0000000  0.0000000     0.2500000  0.2500000  0.2500000
                       0.0000000  0.0000000  0.0000000     0.2500000  0.2500000  0.2500000
                       0.0000000  0.0000000  0.0000000     0.2500000  0.2500000  0.2500000
                       0.0000000  0.0000000  0.0000000     0.2500000  0.2500000  0.2500000
                       0.0000000  0.0000000  0.0000000     0.2500000  0.2500000  0.2500000
           toldfe      1.00000000E-06 Hartree
            typat      1  1
              wtk        0.00050    0.00050    0.00050    0.00050    0.00050    0.00050
                         0.00050    0.00050    0.00050    0.00050    0.00050    0.00050
                         0.00050    0.00050    0.00050    0.00050    0.00050    0.00050
                         0.00050    0.00050    0.00050    0.00050    0.00050    0.00050
                         0.00050    0.00050    0.00050    0.00050    0.00050    0.00050
                         0.00050    0.00050    0.00050    0.00050    0.00050    0.00050
                         0.00050    0.00050    0.00050    0.00050    0.00050    0.00050
                         0.00050    0.00050    0.00050    0.00050    0.00050    0.00050
                         0.00050    0.00050
                       outvars : Printing only first  50 k-points.
           xangst      0.0000000000E+00  0.0000000000E+00  0.0000000000E+00
                       1.3494872792E+00  1.3494872792E+00  1.3494872792E+00
            xcart      0.0000000000E+00  0.0000000000E+00  0.0000000000E+00
                       2.5501613775E+00  2.5501613775E+00  2.5501613775E+00
             xred      0.0000000000E+00  0.0000000000E+00  0.0000000000E+00
                       2.5000000000E-01  2.5000000000E-01  2.5000000000E-01
            znucl       14.00000

================================================================================

 chkinp: Checking input parameters for consistency, jdtset=   1.
 DATA TYPE INFORMATION: 
 REAL:      Data type name: REAL(DP) 
            Kind value:      8
            Precision:      15
            Smallest nonnegligible quantity relative to 1:  0.22204460E-15
            Smallest positive number:                       0.22250739-307
            Largest representable number:                   0.17976931+309
 INTEGER:   Data type name: INTEGER(default) 
            Kind value: 4
            Bit size:   32
            Largest representable number: 2147483647
 LOGICAL:   Data type name: LOGICAL 
            Kind value: 4
 CHARACTER: Data type name: CHARACTER             Kind value: 1

  ==== OpenMP parallelism is OFF ====
 
  ==== Using MPI-1 specifications ==== 
  MPI-IO support is ON
  xmpi_tag_ub ................    536870911
  xmpi_bsize_ch ..............            1
  xmpi_bsize_int .............            4
  xmpi_bsize_sp ..............            4
  xmpi_bsize_dp ..............            8
  xmpi_bsize_spc .............            8
  xmpi_bsize_dpc .............           16
  xmpio_bsize_frm ............            4
  xmpi_address_kind ..........            8
  xmpi_offset_kind ...........            8
  MPI_WTICK ..................    9.9999999999999995E-007

================================================================================
== DATASET  1 ==================================================================
-   nproc =    1


 getdim_nloc : deduce lmnmax  =   4, lnmax  =   2,
                      lmnmaxso=   4, lnmaxso=   2.
 Exchange-correlation functional for the present dataset will be:
  LDA: new Teter (4/93) with spin-polarized option - ixc=1
 Citation for XC functional:
  S. Goedecker, M. Teter, J. Huetter, PRB 54, 1703 (1996)

 Unit cell volume ucvol=  2.6535237E+02 bohr^3
 Angles (23,13,12)=  6.00000000E+01  6.00000000E+01  6.00000000E+01 degrees
 setup1 : take into account q-point for computing boxcut.

 getcut: wavevector=  0.0000  0.0000  0.0000  ngfft=  50  50  50
         ecut(hartree)=     55.125   => boxcut(ratio)=   2.07487
- pspini: atom type   1  psp file is 14si.txt
- pspatm: opening atomic psp file    14si.txt
-  Troullier-Martins psp for element  Si        Thu Oct 27 17:31:21 EDT 1994
- 14.00000   4.00000    940714                znucl, zion, pspdat
    1    1    2    2      2001   0.00000      pspcod,pspxc,lmax,lloc,mmax,r2well
    0   5.907  14.692    1   2.0872718        l,e99.0,e99.9,nproj,rcpsp
   0.00000000   0.00000000   0.00000000   0.00000000     rms, ekb1, ekb2, epsatm
    1   2.617   4.181    1   2.0872718        l,e99.0,e99.9,nproj,rcpsp
   0.00000000   0.00000000   0.00000000   0.00000000     rms, ekb1, ekb2, epsatm
    2   0.000   0.000    0   2.0872718        l,e99.0,e99.9,nproj,rcpsp
   0.00000000   0.00000000   0.00000000   0.00000000     rms, ekb1, ekb2, epsatm
    1.80626423934776    0.22824404341771    1.17378968127746   rchrg,fchrg,qchrg
 pspatm: epsatm=    1.43386982
         --- l  ekb(1:nproj) -->
             0    3.287949
             1    1.849886
 pspatm: atomic psp has been read  and splines computed

   2.29419171E+01                                ecore*ucvol(ha*bohr**3)
 ==== Info on pseudopotentials ====
  Norm-conserving pseudopotentials
  Number of pseudopotentials ..    1
  Number of types of atoms   ..    1
  Scalar calculation (no spin-orbit term)
  Nonlocal part applied using Legendre polynomials
  Highest angular momentum +1 .......   3
  Max number of (l,n)   components ..   2
  Max number of (l,m,n) components ..   2

 Pseudo-Core Charge Info: 
   Number of radial points for pseudo-core charge .. 2501
   XC core-correction treatment (optnlxccc) ........    1
   Radius for pseudo-core charge for each type ..... 

  - Atom type    1 has pseudo-core radius ..  5.4188

 Info on the Q-grid used for form factors in spline form: 
   Number of q-points for radial functions ffspl ..   3001
   Number of q-points for vlspl ...................   3001
   vloc is computed in Reciprocal Space
   model core charge treated in real-space

  XC functional for type 1 is 1
  Pseudo valence available: no

inwffil: examining the header of disk file Si_i_DS1_WFK

================================================================================

          - hdr_check: checking restart file header for consistency -


        current calculation                         restart file
        -------------------                         ------------

  calculation expects a wf_planewave    |  input file contains a wf_planewave
. ABINIT  code version 8.0.7            |  ABINIT  code version 8.0.7
. date 20180426 bantot **** natom    2  |  date 20180418 bantot  550 natom    2
  nkpt2000 nsym 48 ngfft  50,  50,  50  |  nkpt 110 nsym 48 ngfft  50,  50,  50
  ntypat  1 ecut_eff  55.1250000        |  ntypat  1 ecut_eff  55.1250000
  usepaw  0                             |  usepaw  0
  usewvl  0                             |  usewvl  0
  rprimd:                               |  rprimd:
     0.0000000   5.1003228   5.1003228  |     0.0000000   5.0900000   5.0900000
     5.1003228   0.0000000   5.1003228  |     5.0900000   0.0000000   5.0900000
     5.1003228   5.1003228   0.0000000  |     5.0900000   5.0900000   0.0000000

--- !WARNING
src_file: m_hdr.F90
src_line: 3980
message: |
    input nkpt=2000 not equal disk file nkpt=110
...


--- !WARNING
src_file: m_hdr.F90
src_line: 4037
message: |
    input rprimd(1,2)=  5.100322755E+00 /= disk file rprimd(1,2)=  5.090000000E+00
...


--- !WARNING
src_file: m_hdr.F90
src_line: 4037
message: |
    input rprimd(1,3)=  5.100322755E+00 /= disk file rprimd(1,3)=  5.090000000E+00
...


--- !WARNING
src_file: m_hdr.F90
src_line: 4037
message: |
    input rprimd(2,1)=  5.100322755E+00 /= disk file rprimd(2,1)=  5.090000000E+00
...


--- !WARNING
src_file: m_hdr.F90
src_line: 4037
message: |
    input rprimd(2,3)=  5.100322755E+00 /= disk file rprimd(2,3)=  5.090000000E+00
...


--- !WARNING
src_file: m_hdr.F90
src_line: 4037
message: |
    input rprimd(3,1)=  5.100322755E+00 /= disk file rprimd(3,1)=  5.090000000E+00
...


--- !WARNING
src_file: m_hdr.F90
src_line: 4037
message: |
    input rprimd(3,2)=  5.100322755E+00 /= disk file rprimd(3,2)=  5.090000000E+00
...

  symafm:                               |  symafm:
    1  1  1  1  1  1  1  1  1  1  1  1  |    1  1  1  1  1  1  1  1  1  1  1  1
    1  1  1  1  1  1  1  1  1  1  1  1  |    1  1  1  1  1  1  1  1  1  1  1  1
    1  1  1  1  1  1  1  1  1  1  1  1  |    1  1  1  1  1  1  1  1  1  1  1  1
    1  1  1  1  1  1  1  1  1  1  1  1  |    1  1  1  1  1  1  1  1  1  1  1  1
  symrel:                               |  symrel:
    1  0  0  0  1  0  0  0  1           |    1  0  0  0  1  0  0  0  1
   -1  0  0  0 -1  0  0  0 -1           |   -1  0  0  0 -1  0  0  0 -1
    0 -1  1  0 -1  0  1 -1  0           |    0 -1  1  0 -1  0  1 -1  0
    0  1 -1  0  1  0 -1  1  0           |    0  1 -1  0  1  0 -1  1  0
   -1  0  0 -1  0  1 -1  1  0           |   -1  0  0 -1  0  1 -1  1  0
    1  0  0  1  0 -1  1 -1  0           |    1  0  0  1  0 -1  1 -1  0
    0  1 -1  1  0 -1  0  0 -1           |    0  1 -1  1  0 -1  0  0 -1
    0 -1  1 -1  0  1  0  0  1           |    0 -1  1 -1  0  1  0  0  1
   -1  0  0 -1  1  0 -1  0  1           |   -1  0  0 -1  1  0 -1  0  1
    1  0  0  1 -1  0  1  0 -1           |    1  0  0  1 -1  0  1  0 -1
    0 -1  1  1 -1  0  0 -1  0           |    0 -1  1  1 -1  0  0 -1  0
    0  1 -1 -1  1  0  0  1  0           |    0  1 -1 -1  1  0  0  1  0
    1  0  0  0  0  1  0  1  0           |    1  0  0  0  0  1  0  1  0
   -1  0  0  0  0 -1  0 -1  0           |   -1  0  0  0  0 -1  0 -1  0
    0  1 -1  0  0 -1  1  0 -1           |    0  1 -1  0  0 -1  1  0 -1
    0 -1  1  0  0  1 -1  0  1           |    0 -1  1  0  0  1 -1  0  1
   -1  0  1 -1  1  0 -1  0  0           |   -1  0  1 -1  1  0 -1  0  0
    1  0 -1  1 -1  0  1  0  0           |    1  0 -1  1 -1  0  1  0  0
    0 -1  0  1 -1  0  0 -1  1           |    0 -1  0  1 -1  0  0 -1  1
    0  1  0 -1  1  0  0  1 -1           |    0  1  0 -1  1  0  0  1 -1
    1  0 -1  0  0 -1  0  1 -1           |    1  0 -1  0  0 -1  0  1 -1
   -1  0  1  0  0  1  0 -1  1           |   -1  0  1  0  0  1  0 -1  1
    0  1  0  0  0  1  1  0  0           |    0  1  0  0  0  1  1  0  0
    0 -1  0  0  0 -1 -1  0  0           |    0 -1  0  0  0 -1 -1  0  0
    1  0 -1  0  1 -1  0  0 -1           |    1  0 -1  0  1 -1  0  0 -1
   -1  0  1  0 -1  1  0  0  1           |   -1  0  1  0 -1  1  0  0  1
    0 -1  0  0 -1  1  1 -1  0           |    0 -1  0  0 -1  1  1 -1  0
    0  1  0  0  1 -1 -1  1  0           |    0  1  0  0  1 -1 -1  1  0
   -1  0  1 -1  0  0 -1  1  0           |   -1  0  1 -1  0  0 -1  1  0
    1  0 -1  1  0  0  1 -1  0           |    1  0 -1  1  0  0  1 -1  0
    0  1  0  1  0  0  0  0  1           |    0  1  0  1  0  0  0  0  1
    0 -1  0 -1  0  0  0  0 -1           |    0 -1  0 -1  0  0  0  0 -1
    0  0 -1  0  1 -1  1  0 -1           |    0  0 -1  0  1 -1  1  0 -1
    0  0  1  0 -1  1 -1  0  1           |    0  0  1  0 -1  1 -1  0  1
    1 -1  0  0 -1  1  0 -1  0           |    1 -1  0  0 -1  1  0 -1  0
   -1  1  0  0  1 -1  0  1  0           |   -1  1  0  0  1 -1  0  1  0
    0  0  1  1  0  0  0  1  0           |    0  0  1  1  0  0  0  1  0
    0  0 -1 -1  0  0  0 -1  0           |    0  0 -1 -1  0  0  0 -1  0
   -1  1  0 -1  0  0 -1  0  1           |   -1  1  0 -1  0  0 -1  0  1
    1 -1  0  1  0  0  1  0 -1           |    1 -1  0  1  0  0  1  0 -1
    0  0  1  0  1  0  1  0  0           |    0  0  1  0  1  0  1  0  0
    0  0 -1  0 -1  0 -1  0  0           |    0  0 -1  0 -1  0 -1  0  0
    1 -1  0  0 -1  0  0 -1  1           |    1 -1  0  0 -1  0  0 -1  1
   -1  1  0  0  1  0  0  1 -1           |   -1  1  0  0  1  0  0  1 -1
    0  0 -1  1  0 -1  0  1 -1           |    0  0 -1  1  0 -1  0  1 -1
    0  0  1 -1  0  1  0 -1  1           |    0  0  1 -1  0  1  0 -1  1
   -1  1  0 -1  0  1 -1  0  0           |   -1  1  0 -1  0  1 -1  0  0
    1 -1  0  1  0 -1  1  0  0           |    1 -1  0  1  0 -1  1  0  0
  typat:                                |  typat:
    1  1                                |    1  1
  so_psp  :                             |  so_psp  :
    1                                   |    1

--- !WARNING
src_file: m_hdr.F90
src_line: 4214
message: |
    input kptopt= 2  /= disk file kptopt= 1
...

  tnons:                                |  tnons:
     0.0000000   0.0000000   0.0000000  |     0.0000000   0.0000000   0.0000000
     0.2500000   0.2500000   0.2500000  |     0.2500000   0.2500000   0.2500000
     0.0000000   0.0000000   0.0000000  |     0.0000000   0.0000000   0.0000000
     0.2500000   0.2500000   0.2500000  |     0.2500000   0.2500000   0.2500000
     0.0000000   0.0000000   0.0000000  |     0.0000000   0.0000000   0.0000000
     0.2500000   0.2500000   0.2500000  |     0.2500000   0.2500000   0.2500000
     0.0000000   0.0000000   0.0000000  |     0.0000000   0.0000000   0.0000000
     0.2500000   0.2500000   0.2500000  |     0.2500000   0.2500000   0.2500000
     0.0000000   0.0000000   0.0000000  |     0.0000000   0.0000000   0.0000000
     0.2500000   0.2500000   0.2500000  |     0.2500000   0.2500000   0.2500000
     0.0000000   0.0000000   0.0000000  |     0.0000000   0.0000000   0.0000000
     0.2500000   0.2500000   0.2500000  |     0.2500000   0.2500000   0.2500000
     0.0000000   0.0000000   0.0000000  |     0.0000000   0.0000000   0.0000000
     0.2500000   0.2500000   0.2500000  |     0.2500000   0.2500000   0.2500000
     0.0000000   0.0000000   0.0000000  |     0.0000000   0.0000000   0.0000000
     0.2500000   0.2500000   0.2500000  |     0.2500000   0.2500000   0.2500000
     0.0000000   0.0000000   0.0000000  |     0.0000000   0.0000000   0.0000000
     0.2500000   0.2500000   0.2500000  |     0.2500000   0.2500000   0.2500000
     0.0000000   0.0000000   0.0000000  |     0.0000000   0.0000000   0.0000000
     0.2500000   0.2500000   0.2500000  |     0.2500000   0.2500000   0.2500000
     0.0000000   0.0000000   0.0000000  |     0.0000000   0.0000000   0.0000000
     0.2500000   0.2500000   0.2500000  |     0.2500000   0.2500000   0.2500000
     0.0000000   0.0000000   0.0000000  |     0.0000000   0.0000000   0.0000000
     0.2500000   0.2500000   0.2500000  |     0.2500000   0.2500000   0.2500000
     0.0000000   0.0000000   0.0000000  |     0.0000000   0.0000000   0.0000000
     0.2500000   0.2500000   0.2500000  |     0.2500000   0.2500000   0.2500000
     0.0000000   0.0000000   0.0000000  |     0.0000000   0.0000000   0.0000000
     0.2500000   0.2500000   0.2500000  |     0.2500000   0.2500000   0.2500000
     0.0000000   0.0000000   0.0000000  |     0.0000000   0.0000000   0.0000000
     0.2500000   0.2500000   0.2500000  |     0.2500000   0.2500000   0.2500000
     0.0000000   0.0000000   0.0000000  |     0.0000000   0.0000000   0.0000000
     0.2500000   0.2500000   0.2500000  |     0.2500000   0.2500000   0.2500000
     0.0000000   0.0000000   0.0000000  |     0.0000000   0.0000000   0.0000000
     0.2500000   0.2500000   0.2500000  |     0.2500000   0.2500000   0.2500000
     0.0000000   0.0000000   0.0000000  |     0.0000000   0.0000000   0.0000000
     0.2500000   0.2500000   0.2500000  |     0.2500000   0.2500000   0.2500000
     0.0000000   0.0000000   0.0000000  |     0.0000000   0.0000000   0.0000000
     0.2500000   0.2500000   0.2500000  |     0.2500000   0.2500000   0.2500000
     0.0000000   0.0000000   0.0000000  |     0.0000000   0.0000000   0.0000000
     0.2500000   0.2500000   0.2500000  |     0.2500000   0.2500000   0.2500000
     0.0000000   0.0000000   0.0000000  |     0.0000000   0.0000000   0.0000000
     0.2500000   0.2500000   0.2500000  |     0.2500000   0.2500000   0.2500000
     0.0000000   0.0000000   0.0000000  |     0.0000000   0.0000000   0.0000000
     0.2500000   0.2500000   0.2500000  |     0.2500000   0.2500000   0.2500000
     0.0000000   0.0000000   0.0000000  |     0.0000000   0.0000000   0.0000000
     0.2500000   0.2500000   0.2500000  |     0.2500000   0.2500000   0.2500000
     0.0000000   0.0000000   0.0000000  |     0.0000000   0.0000000   0.0000000
     0.2500000   0.2500000   0.2500000  |     0.2500000   0.2500000   0.2500000
   znucl:                               |   znucl:
   14.00                                |   14.00
  pseudopotential atom type  1:         |  pseudopotential atom type  1:
  pspso   0 pspxc   1                   |  pspso   0 pspxc   1
  pspdat 940714 pspcod    1 zion   4.0  |  pspdat 940714 pspcod    1 zion   4.0
  xred:                                 |  xred:
     0.0000000   0.0000000   0.0000000  |    -0.0000000   0.0000000  -0.0000000
     0.2500000   0.2500000   0.2500000  |     0.2500000   0.2500000   0.2500000

--- !WARNING
src_file: m_hdr.F90
src_line: 4509
message: |
    Restart of self-consistent calculation need translated wavefunctions.
...

  Indeed, critical differences between current calculation and
  restart file have been detected in:
        * the number, position, or weight of k-points
        * the format of wavefunctions (istwfk)
        * the vectors defining the unit cell (obtained from rprim and acell)
================================================================================
-inwffil : will read wavefunctions from disk file Si_i_DS1_WFK
 initwf: disk file gives npw= 5100 nband= 5 for kpt number= 1
 initwf: 5 bands have been initialized from disk
 initwf: disk file gives npw= 5128 nband= 5 for kpt number= 2
 initwf: 5 bands have been initialized from disk
 initwf: disk file gives npw= 5111 nband= 5 for kpt number= 3
 initwf: 5 bands have been initialized from disk
 initwf: disk file gives npw= 5118 nband= 5 for kpt number= 4
 initwf: 5 bands have been initialized from disk
 initwf: disk file gives npw= 5151 nband= 5 for kpt number= 5
 initwf: 5 bands have been initialized from disk
 initwf: disk file gives npw= 5155 nband= 5 for kpt number= 6
 initwf: 5 bands have been initialized from disk
 initwf: disk file gives npw= 5158 nband= 5 for kpt number= 7
 initwf: 5 bands have been initialized from disk
 initwf: disk file gives npw= 5130 nband= 5 for kpt number= 8
 initwf: 5 bands have been initialized from disk
 initwf: disk file gives npw= 5149 nband= 5 for kpt number= 9
 initwf: 5 bands have been initialized from disk
 initwf: disk file gives npw= 5152 nband= 5 for kpt number= 10
 initwf: 5 bands have been initialized from disk
 initwf: disk file gives npw= 5153 nband= 5 for kpt number= 11
 initwf: 5 bands have been initialized from disk
 initwf: disk file gives npw= 5150 nband= 5 for kpt number= 12
 initwf: 5 bands have been initialized from disk
 initwf: disk file gives npw= 5157 nband= 5 for kpt number= 13
 initwf: 5 bands have been initialized from disk
 initwf: disk file gives npw= 5152 nband= 5 for kpt number= 14
 initwf: 5 bands have been initialized from disk
 initwf: disk file gives npw= 5157 nband= 5 for kpt number= 15
 initwf: 5 bands have been initialized from disk
 initwf: disk file gives npw= 5153 nband= 5 for kpt number= 16
 initwf: 5 bands have been initialized from disk
 initwf: disk file gives npw= 5139 nband= 5 for kpt number= 17
 initwf: 5 bands have been initialized from disk
 initwf: disk file gives npw= 5146 nband= 5 for kpt number= 18
 initwf: 5 bands have been initialized from disk
 initwf: disk file gives npw= 5154 nband= 5 for kpt number= 19
 initwf: 5 bands have been initialized from disk
 initwf: disk file gives npw= 5148 nband= 5 for kpt number= 20
 initwf: 5 bands have been initialized from disk
 initwf: disk file gives npw= 5163 nband= 5 for kpt number= 21
 initwf: 5 bands have been initialized from disk
 initwf: disk file gives npw= 5160 nband= 5 for kpt number= 22
 initwf: 5 bands have been initialized from disk
 initwf: disk file gives npw= 5153 nband= 5 for kpt number= 23
 initwf: 5 bands have been initialized from disk
 initwf: disk file gives npw= 5153 nband= 5 for kpt number= 24
 initwf: 5 bands have been initialized from disk
 initwf: disk file gives npw= 5158 nband= 5 for kpt number= 25
 initwf: 5 bands have been initialized from disk
 initwf: disk file gives npw= 5151 nband= 5 for kpt number= 26
 initwf: 5 bands have been initialized from disk
 initwf: disk file gives npw= 5153 nband= 5 for kpt number= 27
 initwf: 5 bands have been initialized from disk
 initwf: disk file gives npw= 5153 nband= 5 for kpt number= 28
 initwf: 5 bands have been initialized from disk
 initwf: disk file gives npw= 5159 nband= 5 for kpt number= 29
 initwf: 5 bands have been initialized from disk
 initwf: disk file gives npw= 5157 nband= 5 for kpt number= 30
 initwf: 5 bands have been initialized from disk
 initwf: disk file gives npw= 5128 nband= 5 for kpt number= 31
 initwf: 5 bands have been initialized from disk
 initwf: disk file gives npw= 5144 nband= 5 for kpt number= 32
 initwf: 5 bands have been initialized from disk
 initwf: disk file gives npw= 5152 nband= 5 for kpt number= 33
 initwf: 5 bands have been initialized from disk
 initwf: disk file gives npw= 5155 nband= 5 for kpt number= 34
 initwf: 5 bands have been initialized from disk
 initwf: disk file gives npw= 5168 nband= 5 for kpt number= 35
 initwf: 5 bands have been initialized from disk
 initwf: disk file gives npw= 5156 nband= 5 for kpt number= 36
 initwf: 5 bands have been initialized from disk
 initwf: disk file gives npw= 5159 nband= 5 for kpt number= 37
 initwf: 5 bands have been initialized from disk
 initwf: disk file gives npw= 5159 nband= 5 for kpt number= 38
 initwf: 5 bands have been initialized from disk
 initwf: disk file gives npw= 5158 nband= 5 for kpt number= 39
 initwf: 5 bands have been initialized from disk
 initwf: disk file gives npw= 5157 nband= 5 for kpt number= 40
 initwf: 5 bands have been initialized from disk
 initwf: disk file gives npw= 5162 nband= 5 for kpt number= 41
 initwf: 5 bands have been initialized from disk
 initwf: disk file gives npw= 5167 nband= 5 for kpt number= 42
 initwf: 5 bands have been initialized from disk
 initwf: disk file gives npw= 5164 nband= 5 for kpt number= 43
 initwf: 5 bands have been initialized from disk
 initwf: disk file gives npw= 5153 nband= 5 for kpt number= 44
 initwf: 5 bands have been initialized from disk
 initwf: disk file gives npw= 5154 nband= 5 for kpt number= 45
 initwf: 5 bands have been initialized from disk
 initwf: disk file gives npw= 5156 nband= 5 for kpt number= 46
 initwf: 5 bands have been initialized from disk
 initwf: disk file gives npw= 5169 nband= 5 for kpt number= 47
 initwf: 5 bands have been initialized from disk
 initwf: disk file gives npw= 5160 nband= 5 for kpt number= 48
 initwf: 5 bands have been initialized from disk
 initwf: disk file gives npw= 5151 nband= 5 for kpt number= 49
 initwf: 5 bands have been initialized from disk
 initwf: disk file gives npw= 5149 nband= 5 for kpt number= 50
 initwf: 5 bands have been initialized from disk
 initwf: the number of similar message is sufficient... stop printing them
- newkpt: read input wf with ikpt,npw=   1    5100, make ikpt,npw=   1    5124
- newkpt: read input wf with ikpt,npw=   1    5100, make ikpt,npw=   2    5124
- newkpt: read input wf with ikpt,npw=   1    5100, make ikpt,npw=   3    5124
- newkpt: read input wf with ikpt,npw=   2    5128, make ikpt,npw=   4    5168
- newkpt: read input wf with ikpt,npw=   3    5111, make ikpt,npw=   5    5142
- newkpt: read input wf with ikpt,npw=   4    5118, make ikpt,npw=   6    5155
- newkpt: read input wf with ikpt,npw=   3    5111, make ikpt,npw=   7    5142
- newkpt: read input wf with ikpt,npw=   3    5111, make ikpt,npw=   8    5142
- newkpt: read input wf with ikpt,npw=   4    5118, make ikpt,npw=   9    5155
- newkpt: read input wf with ikpt,npw=   2    5128, make ikpt,npw=  10    5168
- newkpt: read input wf with ikpt,npw=   4    5118, make ikpt,npw=  11    5155
- newkpt: read input wf with ikpt,npw=   4    5118, make ikpt,npw=  12    5155
- newkpt: read input wf with ikpt,npw=   2    5128, make ikpt,npw=  13    5168
- newkpt: read input wf with ikpt,npw=   5    5151, make ikpt,npw=  14    5186
- newkpt: read input wf with ikpt,npw=   6    5155, make ikpt,npw=  15    5174
- newkpt: read input wf with ikpt,npw=   7    5158, make ikpt,npw=  16    5181
- newkpt: read input wf with ikpt,npw=   8    5130, make ikpt,npw=  17    5173
- newkpt: read input wf with ikpt,npw=   9    5149, make ikpt,npw=  18    5176
- newkpt: read input wf with ikpt,npw=  10    5152, make ikpt,npw=  19    5183
- newkpt: read input wf with ikpt,npw=   8    5130, make ikpt,npw=  20    5173
- newkpt: read input wf with ikpt,npw=   8    5130, make ikpt,npw=  21    5173
- newkpt: read input wf with ikpt,npw=   9    5149, make ikpt,npw=  22    5176
- newkpt: read input wf with ikpt,npw=  10    5152, make ikpt,npw=  23    5183
- newkpt: read input wf with ikpt,npw=   6    5155, make ikpt,npw=  24    5174
- newkpt: read input wf with ikpt,npw=   9    5149, make ikpt,npw=  25    5176
- newkpt: read input wf with ikpt,npw=   9    5149, make ikpt,npw=  26    5176
- newkpt: read input wf with ikpt,npw=   6    5155, make ikpt,npw=  27    5174
- newkpt: read input wf with ikpt,npw=   7    5158, make ikpt,npw=  28    5181
- newkpt: read input wf with ikpt,npw=   5    5151, make ikpt,npw=  29    5186
- newkpt: read input wf with ikpt,npw=   7    5158, make ikpt,npw=  30    5181
- newkpt: read input wf with ikpt,npw=  10    5152, make ikpt,npw=  31    5183
- newkpt: read input wf with ikpt,npw=  10    5152, make ikpt,npw=  32    5183
- newkpt: read input wf with ikpt,npw=   7    5158, make ikpt,npw=  33    5181
- newkpt: read input wf with ikpt,npw=   5    5151, make ikpt,npw=  34    5186
- newkpt: read input wf with ikpt,npw=  11    5153, make ikpt,npw=  35    5192
- newkpt: read input wf with ikpt,npw=  12    5150, make ikpt,npw=  36    5184
- newkpt: read input wf with ikpt,npw=  13    5157, make ikpt,npw=  37    5183
- newkpt: read input wf with ikpt,npw=  14    5152, make ikpt,npw=  38    5171
- newkpt: read input wf with ikpt,npw=  15    5157, make ikpt,npw=  39    5181
- newkpt: read input wf with ikpt,npw=  16    5153, make ikpt,npw=  40    5187
- newkpt: read input wf with ikpt,npw=  17    5139, make ikpt,npw=  41    5178
- newkpt: read input wf with ikpt,npw=  18    5146, make ikpt,npw=  42    5181
- newkpt: read input wf with ikpt,npw=  19    5154, make ikpt,npw=  43    5185
- newkpt: read input wf with ikpt,npw=  20    5148, make ikpt,npw=  44    5185
- newkpt: read input wf with ikpt,npw=  17    5139, make ikpt,npw=  45    5178
- newkpt: read input wf with ikpt,npw=  17    5139, make ikpt,npw=  46    5178
- newkpt: read input wf with ikpt,npw=  18    5146, make ikpt,npw=  47    5181
- newkpt: read input wf with ikpt,npw=  19    5154, make ikpt,npw=  48    5185
- newkpt: read input wf with ikpt,npw=  20    5148, make ikpt,npw=  49    5185
- newkpt: read input wf with ikpt,npw=  14    5152, make ikpt,npw=  50    5171
- newkpt : prtvol=0 or 1, do not print more k-points.

 respfn : eigen0 array

 getcut: wavevector=  0.0000  0.0000  0.0000  ngfft=  50  50  50
         ecut(hartree)=     50.000   => boxcut(ratio)=   2.17862
mkrho: echo density (plane-wave part only)
 Total charge density [el/Bohr^3]
      Maximum=    8.6238E-02  at reduced coord.    0.1000    0.1000    0.7000
      Minimum=    3.5706E-03  at reduced coord.    0.5000    0.5000    0.5000
   Integrated=    8.0000E+00

 ==> Calculation of the frozen part of the second order derivatives, this can take some time...


 ==> Calculation of the frozen part of the second order derivative done


 ==>  initialize data related to q vector <== 

 respfn : the norm of the phonon wavelength (as input) was small (<1.d-7).
  q has been set exactly to (0 0 0)

================================================================================
 Real(R)+Recip(G) space primitive vectors, cartesian coordinates (Bohr,Bohr^-1):
 R(1)=  0.0000000  5.1003228  5.1003228  G(1)= -0.0980330  0.0980330  0.0980330
 R(2)=  5.1003228  0.0000000  5.1003228  G(2)=  0.0980330 -0.0980330  0.0980330
 R(3)=  5.1003228  5.1003228  0.0000000  G(3)=  0.0980330  0.0980330 -0.0980330
 Unit cell volume ucvol=  2.6535237E+02 bohr^3
 Unit cell volume ucvol=  2.6535237E+02 bohr^3
 Angles (23,13,12)=  6.00000000E+01  6.00000000E+01  6.00000000E+01 degrees
 Angles (23,13,12)=  6.00000000E+01  6.00000000E+01  6.00000000E+01 degrees

 getcut: wavevector=  0.0000  0.0000  0.0000  ngfft=  50  50  50
         ecut(hartree)=     50.000   => boxcut(ratio)=   2.17862

 The perturbation idir=   2  ipert=   1 is
 symmetric of a previously calculated perturbation.
 So, its SCF calculation is not needed.


 The perturbation idir=   3  ipert=   1 is
 symmetric of a previously calculated perturbation.
 So, its SCF calculation is not needed.


 The perturbation idir=   1  ipert=   2 is
 symmetric of a previously calculated perturbation.
 So, its SCF calculation is not needed.


 The perturbation idir=   2  ipert=   2 is
 symmetric of a previously calculated perturbation.
 So, its SCF calculation is not needed.


 The perturbation idir=   3  ipert=   2 is
 symmetric of a previously calculated perturbation.
 So, its SCF calculation is not needed.


--------------------------------------------------------------------------------
 Perturbation wavevector (in red.coord.)   0.000000  0.000000  0.000000
 Perturbation : displacement of atom   1   along direction   1
 littlegroup_pert : found     2 symmetries that leave the perturbation invariant :
   1   0   0   0   1   0   0   0   1
   1   0   0   0   0   1   0   1   0
 symkpt : the number of k-points, thanks to the symmetries,
 is reduced to  1050 .
 getmpw: optimal value of mpw= 5203
inwffil: examining the header of disk file Si_i_DS1_WFK

================================================================================

          - hdr_check: checking restart file header for consistency -


        current calculation                         restart file
        -------------------                         ------------

  calculation expects a wf_planewave    |  input file contains a wf_planewave
. ABINIT  code version 8.0.7            |  ABINIT  code version 8.0.7
. date 20180426 bantot 5250 natom    2  |  date 20180418 bantot  550 natom    2
  nkpt1050 nsym 48 ngfft  50,  50,  50  |  nkpt 110 nsym 48 ngfft  50,  50,  50
  ntypat  1 ecut_eff  55.1250000        |  ntypat  1 ecut_eff  55.1250000
  usepaw  0                             |  usepaw  0
  usewvl  0                             |  usewvl  0
  rprimd:                               |  rprimd:
     0.0000000   5.1003228   5.1003228  |     0.0000000   5.0900000   5.0900000
     5.1003228   0.0000000   5.1003228  |     5.0900000   0.0000000   5.0900000
     5.1003228   5.1003228   0.0000000  |     5.0900000   5.0900000   0.0000000

--- !WARNING
src_file: m_hdr.F90
src_line: 3980
message: |
    input nkpt=1050 not equal disk file nkpt=110
...


--- !WARNING
src_file: m_hdr.F90
src_line: 4037
message: |
    input rprimd(1,2)=  5.100322755E+00 /= disk file rprimd(1,2)=  5.090000000E+00
...


--- !WARNING
src_file: m_hdr.F90
src_line: 4037
message: |
    input rprimd(1,3)=  5.100322755E+00 /= disk file rprimd(1,3)=  5.090000000E+00
...


--- !WARNING
src_file: m_hdr.F90
src_line: 4037
message: |
    input rprimd(2,1)=  5.100322755E+00 /= disk file rprimd(2,1)=  5.090000000E+00
...


--- !WARNING
src_file: m_hdr.F90
src_line: 4037
message: |
    input rprimd(2,3)=  5.100322755E+00 /= disk file rprimd(2,3)=  5.090000000E+00
...


--- !WARNING
src_file: m_hdr.F90
src_line: 4037
message: |
    input rprimd(3,1)=  5.100322755E+00 /= disk file rprimd(3,1)=  5.090000000E+00
...


--- !WARNING
src_file: m_hdr.F90
src_line: 4037
message: |
    input rprimd(3,2)=  5.100322755E+00 /= disk file rprimd(3,2)=  5.090000000E+00
...

  symafm:                               |  symafm:
    1  1  1  1  1  1  1  1  1  1  1  1  |    1  1  1  1  1  1  1  1  1  1  1  1
    1  1  1  1  1  1  1  1  1  1  1  1  |    1  1  1  1  1  1  1  1  1  1  1  1
    1  1  1  1  1  1  1  1  1  1  1  1  |    1  1  1  1  1  1  1  1  1  1  1  1
    1  1  1  1  1  1  1  1  1  1  1  1  |    1  1  1  1  1  1  1  1  1  1  1  1
  symrel:                               |  symrel:
    1  0  0  0  1  0  0  0  1           |    1  0  0  0  1  0  0  0  1
   -1  0  0  0 -1  0  0  0 -1           |   -1  0  0  0 -1  0  0  0 -1
    0 -1  1  0 -1  0  1 -1  0           |    0 -1  1  0 -1  0  1 -1  0
    0  1 -1  0  1  0 -1  1  0           |    0  1 -1  0  1  0 -1  1  0
   -1  0  0 -1  0  1 -1  1  0           |   -1  0  0 -1  0  1 -1  1  0
    1  0  0  1  0 -1  1 -1  0           |    1  0  0  1  0 -1  1 -1  0
    0  1 -1  1  0 -1  0  0 -1           |    0  1 -1  1  0 -1  0  0 -1
    0 -1  1 -1  0  1  0  0  1           |    0 -1  1 -1  0  1  0  0  1
   -1  0  0 -1  1  0 -1  0  1           |   -1  0  0 -1  1  0 -1  0  1
    1  0  0  1 -1  0  1  0 -1           |    1  0  0  1 -1  0  1  0 -1
    0 -1  1  1 -1  0  0 -1  0           |    0 -1  1  1 -1  0  0 -1  0
    0  1 -1 -1  1  0  0  1  0           |    0  1 -1 -1  1  0  0  1  0
    1  0  0  0  0  1  0  1  0           |    1  0  0  0  0  1  0  1  0
   -1  0  0  0  0 -1  0 -1  0           |   -1  0  0  0  0 -1  0 -1  0
    0  1 -1  0  0 -1  1  0 -1           |    0  1 -1  0  0 -1  1  0 -1
    0 -1  1  0  0  1 -1  0  1           |    0 -1  1  0  0  1 -1  0  1
   -1  0  1 -1  1  0 -1  0  0           |   -1  0  1 -1  1  0 -1  0  0
    1  0 -1  1 -1  0  1  0  0           |    1  0 -1  1 -1  0  1  0  0
    0 -1  0  1 -1  0  0 -1  1           |    0 -1  0  1 -1  0  0 -1  1
    0  1  0 -1  1  0  0  1 -1           |    0  1  0 -1  1  0  0  1 -1
    1  0 -1  0  0 -1  0  1 -1           |    1  0 -1  0  0 -1  0  1 -1
   -1  0  1  0  0  1  0 -1  1           |   -1  0  1  0  0  1  0 -1  1
    0  1  0  0  0  1  1  0  0           |    0  1  0  0  0  1  1  0  0
    0 -1  0  0  0 -1 -1  0  0           |    0 -1  0  0  0 -1 -1  0  0
    1  0 -1  0  1 -1  0  0 -1           |    1  0 -1  0  1 -1  0  0 -1
   -1  0  1  0 -1  1  0  0  1           |   -1  0  1  0 -1  1  0  0  1
    0 -1  0  0 -1  1  1 -1  0           |    0 -1  0  0 -1  1  1 -1  0
    0  1  0  0  1 -1 -1  1  0           |    0  1  0  0  1 -1 -1  1  0
   -1  0  1 -1  0  0 -1  1  0           |   -1  0  1 -1  0  0 -1  1  0
    1  0 -1  1  0  0  1 -1  0           |    1  0 -1  1  0  0  1 -1  0
    0  1  0  1  0  0  0  0  1           |    0  1  0  1  0  0  0  0  1
    0 -1  0 -1  0  0  0  0 -1           |    0 -1  0 -1  0  0  0  0 -1
    0  0 -1  0  1 -1  1  0 -1           |    0  0 -1  0  1 -1  1  0 -1
    0  0  1  0 -1  1 -1  0  1           |    0  0  1  0 -1  1 -1  0  1
    1 -1  0  0 -1  1  0 -1  0           |    1 -1  0  0 -1  1  0 -1  0
   -1  1  0  0  1 -1  0  1  0           |   -1  1  0  0  1 -1  0  1  0
    0  0  1  1  0  0  0  1  0           |    0  0  1  1  0  0  0  1  0
    0  0 -1 -1  0  0  0 -1  0           |    0  0 -1 -1  0  0  0 -1  0
   -1  1  0 -1  0  0 -1  0  1           |   -1  1  0 -1  0  0 -1  0  1
    1 -1  0  1  0  0  1  0 -1           |    1 -1  0  1  0  0  1  0 -1
    0  0  1  0  1  0  1  0  0           |    0  0  1  0  1  0  1  0  0
    0  0 -1  0 -1  0 -1  0  0           |    0  0 -1  0 -1  0 -1  0  0
    1 -1  0  0 -1  0  0 -1  1           |    1 -1  0  0 -1  0  0 -1  1
   -1  1  0  0  1  0  0  1 -1           |   -1  1  0  0  1  0  0  1 -1
    0  0 -1  1  0 -1  0  1 -1           |    0  0 -1  1  0 -1  0  1 -1
    0  0  1 -1  0  1  0 -1  1           |    0  0  1 -1  0  1  0 -1  1
   -1  1  0 -1  0  1 -1  0  0           |   -1  1  0 -1  0  1 -1  0  0
    1 -1  0  1  0 -1  1  0  0           |    1 -1  0  1  0 -1  1  0  0
  typat:                                |  typat:
    1  1                                |    1  1
  so_psp  :                             |  so_psp  :
    1                                   |    1

--- !WARNING
src_file: m_hdr.F90
src_line: 4214
message: |
    input kptopt= 2  /= disk file kptopt= 1
...

  tnons:                                |  tnons:
     0.0000000   0.0000000   0.0000000  |     0.0000000   0.0000000   0.0000000
     0.2500000   0.2500000   0.2500000  |     0.2500000   0.2500000   0.2500000
     0.0000000   0.0000000   0.0000000  |     0.0000000   0.0000000   0.0000000
     0.2500000   0.2500000   0.2500000  |     0.2500000   0.2500000   0.2500000
     0.0000000   0.0000000   0.0000000  |     0.0000000   0.0000000   0.0000000
     0.2500000   0.2500000   0.2500000  |     0.2500000   0.2500000   0.2500000
     0.0000000   0.0000000   0.0000000  |     0.0000000   0.0000000   0.0000000
     0.2500000   0.2500000   0.2500000  |     0.2500000   0.2500000   0.2500000
     0.0000000   0.0000000   0.0000000  |     0.0000000   0.0000000   0.0000000
     0.2500000   0.2500000   0.2500000  |     0.2500000   0.2500000   0.2500000
     0.0000000   0.0000000   0.0000000  |     0.0000000   0.0000000   0.0000000
     0.2500000   0.2500000   0.2500000  |     0.2500000   0.2500000   0.2500000
     0.0000000   0.0000000   0.0000000  |     0.0000000   0.0000000   0.0000000
     0.2500000   0.2500000   0.2500000  |     0.2500000   0.2500000   0.2500000
     0.0000000   0.0000000   0.0000000  |     0.0000000   0.0000000   0.0000000
     0.2500000   0.2500000   0.2500000  |     0.2500000   0.2500000   0.2500000
     0.0000000   0.0000000   0.0000000  |     0.0000000   0.0000000   0.0000000
     0.2500000   0.2500000   0.2500000  |     0.2500000   0.2500000   0.2500000
     0.0000000   0.0000000   0.0000000  |     0.0000000   0.0000000   0.0000000
     0.2500000   0.2500000   0.2500000  |     0.2500000   0.2500000   0.2500000
     0.0000000   0.0000000   0.0000000  |     0.0000000   0.0000000   0.0000000
     0.2500000   0.2500000   0.2500000  |     0.2500000   0.2500000   0.2500000
     0.0000000   0.0000000   0.0000000  |     0.0000000   0.0000000   0.0000000
     0.2500000   0.2500000   0.2500000  |     0.2500000   0.2500000   0.2500000
     0.0000000   0.0000000   0.0000000  |     0.0000000   0.0000000   0.0000000
     0.2500000   0.2500000   0.2500000  |     0.2500000   0.2500000   0.2500000
     0.0000000   0.0000000   0.0000000  |     0.0000000   0.0000000   0.0000000
     0.2500000   0.2500000   0.2500000  |     0.2500000   0.2500000   0.2500000
     0.0000000   0.0000000   0.0000000  |     0.0000000   0.0000000   0.0000000
     0.2500000   0.2500000   0.2500000  |     0.2500000   0.2500000   0.2500000
     0.0000000   0.0000000   0.0000000  |     0.0000000   0.0000000   0.0000000
     0.2500000   0.2500000   0.2500000  |     0.2500000   0.2500000   0.2500000
     0.0000000   0.0000000   0.0000000  |     0.0000000   0.0000000   0.0000000
     0.2500000   0.2500000   0.2500000  |     0.2500000   0.2500000   0.2500000
     0.0000000   0.0000000   0.0000000  |     0.0000000   0.0000000   0.0000000
     0.2500000   0.2500000   0.2500000  |     0.2500000   0.2500000   0.2500000
     0.0000000   0.0000000   0.0000000  |     0.0000000   0.0000000   0.0000000
     0.2500000   0.2500000   0.2500000  |     0.2500000   0.2500000   0.2500000
     0.0000000   0.0000000   0.0000000  |     0.0000000   0.0000000   0.0000000
     0.2500000   0.2500000   0.2500000  |     0.2500000   0.2500000   0.2500000
     0.0000000   0.0000000   0.0000000  |     0.0000000   0.0000000   0.0000000
     0.2500000   0.2500000   0.2500000  |     0.2500000   0.2500000   0.2500000
     0.0000000   0.0000000   0.0000000  |     0.0000000   0.0000000   0.0000000
     0.2500000   0.2500000   0.2500000  |     0.2500000   0.2500000   0.2500000
[...]
  1.59E-12 5.04E-13 7.61E-13 6.78E-13 3.40E-07
  -0.0500 -0.0500  0.2500    1  3.30149E-09 kpt; spin; max resid(k); each band:
  1.57E-12 5.58E-13 6.70E-13 8.55E-13 3.30E-09
  -0.0500 -0.4000  0.0000    1  3.82688E-10 kpt; spin; max resid(k); each band:
  1.76E-12 3.36E-12 7.25E-13 8.88E-13 3.83E-10
  -0.1000 -0.3500  0.0000    1  1.17267E-08 kpt; spin; max resid(k); each band:
  1.60E-12 3.18E-12 6.38E-13 6.33E-13 1.17E-08
  -0.0500 -0.3500  0.0500    1  1.09823E-08 kpt; spin; max resid(k); each band:
  5.87E-13 6.15E-13 6.15E-13 7.53E-13 1.10E-08
  -0.1500 -0.3000  0.0000    1  3.19402E-11 kpt; spin; max resid(k); each band:
  2.10E-12 4.31E-13 5.74E-13 6.24E-13 3.19E-11
  -0.1000 -0.3000  0.0500    1  6.02577E-10 kpt; spin; max resid(k); each band:
  1.75E-12 4.01E-13 5.16E-13 5.38E-13 6.03E-10
  -0.0500 -0.3000  0.1000    1  8.21030E-07 kpt; spin; max resid(k); each band:
  6.40E-13 4.61E-13 5.11E-13 6.91E-13 8.21E-07
  -0.2000 -0.2500  0.0000    1  1.83598E-11 kpt; spin; max resid(k); each band:
  2.16E-12 5.03E-13 6.09E-13 6.61E-13 1.84E-11
  -0.1500 -0.2500  0.0500    1  2.88180E-11 kpt; spin; max resid(k); each band:
  2.09E-12 4.73E-13 6.28E-13 4.04E-13 2.88E-11
  -0.1000 -0.2500  0.1000    1  2.02575E-09 kpt; spin; max resid(k); each band:
  1.86E-12 4.11E-13 4.80E-13 4.82E-13 2.03E-09
  -0.0500 -0.2500  0.1500    1  4.80434E-05 kpt; spin; max resid(k); each band:
  1.75E-12 4.09E-13 6.43E-13 5.77E-13 4.80E-05
  -0.2500 -0.2000  0.0000    1  1.69078E-11 kpt; spin; max resid(k); each band:
  2.15E-12 4.00E-13 7.95E-13 6.32E-13 1.69E-11
  -0.2000 -0.2000  0.0500    1  1.83695E-11 kpt; spin; max resid(k); each band:
  2.15E-12 5.02E-13 6.07E-13 6.56E-13 1.84E-11
  -0.1500 -0.2000  0.1000    1  2.88327E-11 kpt; spin; max resid(k); each band:
  2.08E-12 4.71E-13 6.25E-13 4.01E-13 2.88E-11
  -0.1000 -0.2000  0.1500    1  2.02409E-09 kpt; spin; max resid(k); each band:
  1.84E-12 4.10E-13 4.76E-13 4.80E-13 2.02E-09
  -0.0500 -0.2000  0.2000    1  4.80435E-05 kpt; spin; max resid(k); each band:
  1.75E-12 4.09E-13 6.46E-13 5.81E-13 4.80E-05
  -0.3000 -0.1500  0.0000    1  1.58574E-11 kpt; spin; max resid(k); each band:
  2.21E-12 2.98E-13 9.70E-13 5.26E-13 1.59E-11
 outwf : prtvol=0 or 1, do not print more k-points.


 outwf: write wavefunction to file Si_o_DS1_1WF1, with iomode -1
 outwf with iomode: -1, cpu_time:     1.18[s], walltime:     1.46 [s]

 Thirteen components of 2nd-order total energy (hartree) are
 1,2,3: 0th-order hamiltonian combined with 1st-order wavefunctions
     kin0=   6.50877292E+01 eigvalue=  -3.88910566E+00  local=  -4.50749453E+01
 4,5,6: 1st-order hamiltonian combined with 1st and 0th-order wfs
 loc psp =  -1.65777151E+01  Hartree=   1.38820306E+01     xc=  -5.49516106E+00
 note that "loc psp" includes a xc core correction that could be resolved
 7,8,9: eventually, occupation + non-local contributions
    edocc=   1.91179078E+00     enl0=   2.83183951E+01   enl1=  -9.29037463E+01
 1-9 gives the relaxation energy (to be shifted if some occ is /=2.0)
   erelax=  -5.47407278E+01
 10,11,12 Non-relaxation  contributions : frozen-wavefunctions and Ewald
 fr.local=  -4.12939589E+00 fr.nonlo=   5.41309558E+01  Ewald=   1.31404710E+01
 dfpt_prtene : non-relax=    6.314203E+01
 13,14 Frozen wf xc core corrections (1) and (2)
 frxc 1  =  -7.93884919E+00  frxc 2 =   6.85668013E+00
 Resulting in :
 2DEtotal=    0.7319134142E+01 Ha. Also 2DEtotal=    0.199163768669E+03 eV
    (2DErelax=   -5.4740727751E+01 Ha. 2DEnonrelax=    6.2059861894E+01 Ha)
    (  non-var. 2DEtotal :    7.3191311712E+00 Ha)

================================================================================

 ---- first-order wavefunction calculations are completed ----


 ==> Compute Derivative Database <==
  dfpt_dyout : exit 
 
 phonon wavelength (reduced coordinates) , norm, and energies in hartree
  0.00 0.00 0.00 1.00
  1.586793423E-06  1.586793999E-06  1.586795728E-06  2.344288377E-03  2.344288377E-03
  2.344288377E-03
 Zero Point Motion energy (sum of freqs/2)=  3.518812757E-03

== END DATASET(S) ==============================================================
================================================================================
  
 -outvars: echo values of variables after computation  --------
            acell      1.0200645510E+01  1.0200645510E+01  1.0200645510E+01 Bohr
              amu      2.80855000E+01
           diemac      1.20000000E+01
          dilatmx      1.05000000E+00
             ecut      5.00000000E+01 Hartree
           ecutsm      5.00000000E-01 Hartree
           etotal1     7.3191341423E+00
            fcart1     0.0000000000E+00  0.0000000000E+00  0.0000000000E+00
                       0.0000000000E+00  0.0000000000E+00  0.0000000000E+00
-          fftalg         112
           irdwfk           1
           jdtset        1
              kpt     -5.00000000E-02 -1.00000000E-01  0.00000000E+00
                      -1.00000000E-01 -5.00000000E-02  0.00000000E+00
                      -5.00000000E-02 -5.00000000E-02  5.00000000E-02
                      -5.00000000E-02 -2.00000000E-01  0.00000000E+00
                      -1.00000000E-01 -1.50000000E-01  0.00000000E+00
                      -5.00000000E-02 -1.50000000E-01  5.00000000E-02
                      -1.50000000E-01 -1.00000000E-01  0.00000000E+00
                      -1.00000000E-01 -1.00000000E-01  5.00000000E-02
                      -5.00000000E-02 -1.00000000E-01  1.00000000E-01
                      -2.00000000E-01 -5.00000000E-02  0.00000000E+00
                      -1.50000000E-01 -5.00000000E-02  5.00000000E-02
                      -1.00000000E-01 -5.00000000E-02  1.00000000E-01
                      -5.00000000E-02 -5.00000000E-02  1.50000000E-01
                      -5.00000000E-02 -3.00000000E-01  0.00000000E+00
                      -1.00000000E-01 -2.50000000E-01  0.00000000E+00
                      -5.00000000E-02 -2.50000000E-01  5.00000000E-02
                      -1.50000000E-01 -2.00000000E-01  0.00000000E+00
                      -1.00000000E-01 -2.00000000E-01  5.00000000E-02
                      -5.00000000E-02 -2.00000000E-01  1.00000000E-01
                      -2.00000000E-01 -1.50000000E-01  0.00000000E+00
                      -1.50000000E-01 -1.50000000E-01  5.00000000E-02
                      -1.00000000E-01 -1.50000000E-01  1.00000000E-01
                      -5.00000000E-02 -1.50000000E-01  1.50000000E-01
                      -2.50000000E-01 -1.00000000E-01  0.00000000E+00
                      -2.00000000E-01 -1.00000000E-01  5.00000000E-02
                      -1.50000000E-01 -1.00000000E-01  1.00000000E-01
                      -1.00000000E-01 -1.00000000E-01  1.50000000E-01
                      -5.00000000E-02 -1.00000000E-01  2.00000000E-01
                      -3.00000000E-01 -5.00000000E-02  0.00000000E+00
                      -2.50000000E-01 -5.00000000E-02  5.00000000E-02
                      -2.00000000E-01 -5.00000000E-02  1.00000000E-01
                      -1.50000000E-01 -5.00000000E-02  1.50000000E-01
                      -1.00000000E-01 -5.00000000E-02  2.00000000E-01
                      -5.00000000E-02 -5.00000000E-02  2.50000000E-01
                      -5.00000000E-02 -4.00000000E-01  0.00000000E+00
                      -1.00000000E-01 -3.50000000E-01  0.00000000E+00
                      -5.00000000E-02 -3.50000000E-01  5.00000000E-02
                      -1.50000000E-01 -3.00000000E-01  0.00000000E+00
                      -1.00000000E-01 -3.00000000E-01  5.00000000E-02
                      -5.00000000E-02 -3.00000000E-01  1.00000000E-01
                      -2.00000000E-01 -2.50000000E-01  0.00000000E+00
                      -1.50000000E-01 -2.50000000E-01  5.00000000E-02
                      -1.00000000E-01 -2.50000000E-01  1.00000000E-01
                      -5.00000000E-02 -2.50000000E-01  1.50000000E-01
                      -2.50000000E-01 -2.00000000E-01  0.00000000E+00
                      -2.00000000E-01 -2.00000000E-01  5.00000000E-02
                      -1.50000000E-01 -2.00000000E-01  1.00000000E-01
                      -1.00000000E-01 -2.00000000E-01  1.50000000E-01
                      -5.00000000E-02 -2.00000000E-01  2.00000000E-01
                      -3.00000000E-01 -1.50000000E-01  0.00000000E+00
                       outvar_i_n : Printing only first  50 k-points.
           kptopt           2
         kptrlatt       10  -10   10    -10   10   10    -10  -10   10
          kptrlen      1.02006455E+02
P           mkmem        2000
P          mkqmem        2000
P          mk1mem        2000
            natom           2
            nband           5
           ndtset           1
            ngfft          50      50      50
             nkpt        2000
             nqpt           1
            nstep          10
             nsym          48
            ntime          10
           ntypat           1
              occ      2.000000  2.000000  2.000000  2.000000  0.000000
        optdriver           1
          rfatpol           1       2
            rfdir           1       1       1
           rfphon           1
            rprim      0.0000000000E+00  5.0000000000E-01  5.0000000000E-01
                       5.0000000000E-01  0.0000000000E+00  5.0000000000E-01
                       5.0000000000E-01  5.0000000000E-01  0.0000000000E+00
           shiftk      5.00000000E-01  5.00000000E-01  5.00000000E-01
          spgroup         227
           strten1     0.0000000000E+00  0.0000000000E+00  0.0000000000E+00
                       0.0000000000E+00  0.0000000000E+00  0.0000000000E+00
           symrel      1  0  0   0  1  0   0  0  1      -1  0  0   0 -1  0   0  0 -1
                       0 -1  1   0 -1  0   1 -1  0       0  1 -1   0  1  0  -1  1  0
                      -1  0  0  -1  0  1  -1  1  0       1  0  0   1  0 -1   1 -1  0
                       0  1 -1   1  0 -1   0  0 -1       0 -1  1  -1  0  1   0  0  1
                      -1  0  0  -1  1  0  -1  0  1       1  0  0   1 -1  0   1  0 -1
                       0 -1  1   1 -1  0   0 -1  0       0  1 -1  -1  1  0   0  1  0
                       1  0  0   0  0  1   0  1  0      -1  0  0   0  0 -1   0 -1  0
                       0  1 -1   0  0 -1   1  0 -1       0 -1  1   0  0  1  -1  0  1
                      -1  0  1  -1  1  0  -1  0  0       1  0 -1   1 -1  0   1  0  0
                       0 -1  0   1 -1  0   0 -1  1       0  1  0  -1  1  0   0  1 -1
                       1  0 -1   0  0 -1   0  1 -1      -1  0  1   0  0  1   0 -1  1
                       0  1  0   0  0  1   1  0  0       0 -1  0   0  0 -1  -1  0  0
                       1  0 -1   0  1 -1   0  0 -1      -1  0  1   0 -1  1   0  0  1
                       0 -1  0   0 -1  1   1 -1  0       0  1  0   0  1 -1  -1  1  0
                      -1  0  1  -1  0  0  -1  1  0       1  0 -1   1  0  0   1 -1  0
                       0  1  0   1  0  0   0  0  1       0 -1  0  -1  0  0   0  0 -1
                       0  0 -1   0  1 -1   1  0 -1       0  0  1   0 -1  1  -1  0  1
                       1 -1  0   0 -1  1   0 -1  0      -1  1  0   0  1 -1   0  1  0
                       0  0  1   1  0  0   0  1  0       0  0 -1  -1  0  0   0 -1  0
                      -1  1  0  -1  0  0  -1  0  1       1 -1  0   1  0  0   1  0 -1
                       0  0  1   0  1  0   1  0  0       0  0 -1   0 -1  0  -1  0  0
                       1 -1  0   0 -1  0   0 -1  1      -1  1  0   0  1  0   0  1 -1
                       0  0 -1   1  0 -1   0  1 -1       0  0  1  -1  0  1   0 -1  1
                      -1  1  0  -1  0  1  -1  0  0       1 -1  0   1  0 -1   1  0  0
            tnons      0.0000000  0.0000000  0.0000000     0.2500000  0.2500000  0.2500000
                       0.0000000  0.0000000  0.0000000     0.2500000  0.2500000  0.2500000
                       0.0000000  0.0000000  0.0000000     0.2500000  0.2500000  0.2500000
                       0.0000000  0.0000000  0.0000000     0.2500000  0.2500000  0.2500000
                       0.0000000  0.0000000  0.0000000     0.2500000  0.2500000  0.2500000
                       0.0000000  0.0000000  0.0000000     0.2500000  0.2500000  0.2500000
                       0.0000000  0.0000000  0.0000000     0.2500000  0.2500000  0.2500000
                       0.0000000  0.0000000  0.0000000     0.2500000  0.2500000  0.2500000
                       0.0000000  0.0000000  0.0000000     0.2500000  0.2500000  0.2500000
                       0.0000000  0.0000000  0.0000000     0.2500000  0.2500000  0.2500000
                       0.0000000  0.0000000  0.0000000     0.2500000  0.2500000  0.2500000
                       0.0000000  0.0000000  0.0000000     0.2500000  0.2500000  0.2500000
                       0.0000000  0.0000000  0.0000000     0.2500000  0.2500000  0.2500000
                       0.0000000  0.0000000  0.0000000     0.2500000  0.2500000  0.2500000
                       0.0000000  0.0000000  0.0000000     0.2500000  0.2500000  0.2500000
                       0.0000000  0.0000000  0.0000000     0.2500000  0.2500000  0.2500000
                       0.0000000  0.0000000  0.0000000     0.2500000  0.2500000  0.2500000
                       0.0000000  0.0000000  0.0000000     0.2500000  0.2500000  0.2500000
                       0.0000000  0.0000000  0.0000000     0.2500000  0.2500000  0.2500000
                       0.0000000  0.0000000  0.0000000     0.2500000  0.2500000  0.2500000
                       0.0000000  0.0000000  0.0000000     0.2500000  0.2500000  0.2500000
                       0.0000000  0.0000000  0.0000000     0.2500000  0.2500000  0.2500000
                       0.0000000  0.0000000  0.0000000     0.2500000  0.2500000  0.2500000
                       0.0000000  0.0000000  0.0000000     0.2500000  0.2500000  0.2500000
           toldfe      1.00000000E-06 Hartree
            typat      1  1
              wtk        0.00050    0.00050    0.00050    0.00050    0.00050    0.00050
                         0.00050    0.00050    0.00050    0.00050    0.00050    0.00050
                         0.00050    0.00050    0.00050    0.00050    0.00050    0.00050
                         0.00050    0.00050    0.00050    0.00050    0.00050    0.00050
                         0.00050    0.00050    0.00050    0.00050    0.00050    0.00050
                         0.00050    0.00050    0.00050    0.00050    0.00050    0.00050
                         0.00050    0.00050    0.00050    0.00050    0.00050    0.00050
                         0.00050    0.00050    0.00050    0.00050    0.00050    0.00050
                         0.00050    0.00050
                       outvars : Printing only first  50 k-points.
           xangst      0.0000000000E+00  0.0000000000E+00  0.0000000000E+00
                       1.3494872792E+00  1.3494872792E+00  1.3494872792E+00
            xcart      0.0000000000E+00  0.0000000000E+00  0.0000000000E+00
                       2.5501613775E+00  2.5501613775E+00  2.5501613775E+00
             xred      0.0000000000E+00  0.0000000000E+00  0.0000000000E+00
                       2.5000000000E-01  2.5000000000E-01  2.5000000000E-01
            znucl       14.00000

================================================================================
  

================================================================================

 Suggested references for the acknowledgment of ABINIT usage.

 The users of ABINIT have little formal obligations with respect to the ABINIT group
 (those specified in the GNU General Public License, http://www.gnu.org/copyleft/gpl.txt).
 However, it is common practice in the scientific literature,
 to acknowledge the efforts of people that have made the research possible.
 In this spirit, please find below suggested citations of work written by ABINIT developers,
 corresponding to implementations inside of ABINIT that you have used in the present run.
 Note also that it will be of great value to readers of publications presenting these results,
 to read papers enabling them to understand the theoretical formalism and details
 of the ABINIT implementation.
 For information on why they are suggested, see also http://www.abinit.org/about/?text=acknowledgments.
-
- [1] Recent developments in the ABINIT software package
- X.Gonze, F.Jollet, F.Abreu Araujo, D.Adams, B.Amadon, T.Applencourt,
- C.Audouze, J.-M.Beuken, J.Bieder, A.Bokhanchuk, E.Bousquet, F.Bruneval
- D.Caliste, M.Cote, F.Dahm, F.Da Pieve, M.Delaveau, M.Di Gennaro,
- B.Dorado, C.Espejo, G.Geneste, L.Genovese, A.Gerossier, M.Giantomassi,
- Y.Gillet, D.R.Hamann, L.He, G.Jomard, J.Laflamme Janssen, S.Le Roux,
- A.Levitt, A.Lherbier, F.Liu, I.Lukacevic, A.Martin, C.Martins,
- M.J.T.Oliveira, S.Ponce, Y.Pouillon, T.Rangel, G.-M.Rignanese,
- A.H.Romero, B.Rousseau, O.Rubel, A.A.Shukri, M.Stankovski, M.Torrent,
- Comment : the fourth generic paper describing the ABINIT project.
- Note that a version of this paper, that is not formatted for Computer Phys. Comm. 
- is available at http://www.abinit.org/about/ABINIT16.pdf .
- The licence allows the authors to put it on the Web.
-
- [2] First-principles responses of solids to atomic displacements and homogeneous electric fields:,
- implementation of a conjugate-gradient algorithm. X. Gonze, Phys. Rev. B55, 10337 (1997).
- Comment : Non-vanishing rfphon and/or rfelfd, in the norm-conserving case.
-
- [3] Dynamical matrices, Born effective charges, dielectric permittivity tensors, and ,
- interatomic force constants from density-functional perturbation theory,
- X. Gonze and C. Lee, Phys. Rev. B55, 10355 (1997).
- Comment : Non-vanishing rfphon and/or rfelfd, in the norm-conserving case.
-
- [4] ABINIT : First-principles approach of materials and nanosystem properties.
- X. Gonze, B. Amadon, P.-M. Anglade, J.-M. Beuken, F. Bottin, P. Boulanger, F. Bruneval,
- D. Caliste, R. Caracas, M. Cote, T. Deutsch, L. Genovese, Ph. Ghosez, M. Giantomassi
- S. Goedecker, D.R. Hamann, P. Hermet, F. Jollet, G. Jomard, S. Leroux, M. Mancini, S. Mazevet,
- M.J.T. Oliveira, G. Onida, Y. Pouillon, T. Rangel, G.-M. Rignanese, D. Sangalli, R. Shaltaf,
- M. Torrent, M.J. Verstraete, G. Zerah, J.W. Zwanziger
- Computer Phys. Comm. 180, 2582-2615 (2009).
- Comment : the third generic paper describing the ABINIT project.
- Note that a version of this paper, that is not formatted for Computer Phys. Comm. 
- is available at http://www.abinit.org/about/ABINIT_CPC_v10.pdf .
- The licence allows the authors to put it on the Web.
-
- [5] A brief introduction to the ABINIT software package.
- X. Gonze, G.-M. Rignanese, M. Verstraete, J.-M. Beuken, Y. Pouillon, R. Caracas, F. Jollet,
- M. Torrent, G. Zerah, M. Mikami, Ph. Ghosez, M. Veithen, J.-Y. Raty, V. Olevano, F. Bruneval,
- L. Reining, R. Godby, G. Onida, D.R. Hamann, and D.C. Allan.
- Z. Kristallogr. 220, 558-562 (2005).
- Comment : the second generic paper describing the ABINIT project. Note that this paper
- should be cited especially if you are using the GW part of ABINIT, as several authors
- of this part are not in the list of authors of the first or third paper.
- The .pdf of the latter paper is available at http://www.abinit.org/about/zfk_0505-06_558-562.pdf.
- Note that it should not redistributed (Copyright by Oldenburg Wissenshaftverlag,
- the licence allows the authors to put it on the Web).
  Asked to delete not existent file: Si__STATUS
 Proc.   0 individual time (sec): cpu=       1014.4  wall=       1015.7

 Calculation completed.
.Delivered  18 WARNINGs and   2 COMMENTs to log file.

--- !FinalSummary
program: abinit
version: 8.0.7
start_datetime: Thu Apr 26 12:06:25 2018
end_datetime: Thu Apr 26 12:23:21 2018
overall_cpu_time:        1014.4
overall_wall_time:        1015.7
exit_requested_by_user: no 
timelimit: 0
pseudos: 
    Si  : 3916b143991b1cfa1542b130be320e5e
usepaw: 0
mpi_procs: 1
omp_threads: 1
num_warnings: 18
num_comments: 2
...
