
.Version 8.0.7 of ABINIT 
.(MPI version, prepared for a x86_64_linux_gnu4.9 computer) 

.Copyright (C) 1998-2016 ABINIT group . 
 ABINIT comes with ABSOLUTELY NO WARRANTY.
 It is free software, and you are welcome to redistribute it
 under certain conditions (GNU General Public License,
 see ~abinit/COPYING or http://www.gnu.org/copyleft/gpl.txt).

 ABINIT is a project of the Universite Catholique de Louvain,
 Corning Inc. and other collaborators, see ~abinit/doc/developers/contributors.txt .
 Please read ~abinit/doc/users/acknowledgments.html for suggested
 acknowledgments of the ABINIT effort.
 For more information, see http://www.abinit.org .

.Starting date : Thu 26 Apr 2018.
- ( at 12h06 )
  
- input  file    -> Si_in.txt
- output file    -> Si_out.txt
- root for input  files -> Si_i
- root for output files -> Si_o


 DATASET    1 : space group Fd -3 m (#227); Bravais cF (face-center cubic)
================================================================================
 Values of the parameters that define the memory need for DATASET  1 (RF).
     intxc =       0      iscf =       7    lmnmax =       2     lnmax =       2
     mgfft =      50  mpssoang =       3    mqgrid =    3001     natom =       2
  nloc_mem =       1    nspden =       1   nspinor =       1    nsppol =       1
      nsym =      48    n1xccc =    2501    ntypat =       1    occopt =       1
   xclevel =       1
-    mband =           5        mffmem =           1         mkmem =        2000
-   mkqmem =        2000        mk1mem =        2000           mpw =        5203
      nfft =      125000          nkpt =        2000
================================================================================
P This job should need less than                    2648.660 Mbytes of memory.
  Rough estimation (10% accuracy) of disk space for files :
_ WF disk file :    793.917 Mbytes ; DEN or POT disk file :      0.956 Mbytes.
================================================================================

--------------------------------------------------------------------------------
------------- Echo of variables that govern the present computation ------------
--------------------------------------------------------------------------------
-
- outvars: echo of selected default values                                      
-   iomode0 =  0 , fftalg0 =112 , wfoptalg0 =  0
-
- outvars: echo of global parameters not present in the input file              
-  max_nthreads =    0
-
 -outvars: echo values of preprocessed input variables --------
            acell      1.0200645510E+01  1.0200645510E+01  1.0200645510E+01 Bohr
              amu      2.80855000E+01
           diemac      1.20000000E+01
          dilatmx      1.05000000E+00
             ecut      5.00000000E+01 Hartree
           ecutsm      5.00000000E-01 Hartree
-          fftalg         112
           irdwfk           1
           jdtset        1
              kpt     -5.00000000E-02 -1.00000000E-01  0.00000000E+00
                      -1.00000000E-01 -5.00000000E-02  0.00000000E+00
                      -5.00000000E-02 -5.00000000E-02  5.00000000E-02
                      -5.00000000E-02 -2.00000000E-01  0.00000000E+00
                      -1.00000000E-01 -1.50000000E-01  0.00000000E+00
                      -5.00000000E-02 -1.50000000E-01  5.00000000E-02
                      -1.50000000E-01 -1.00000000E-01  0.00000000E+00
                      -1.00000000E-01 -1.00000000E-01  5.00000000E-02
                      -5.00000000E-02 -1.00000000E-01  1.00000000E-01
                      -2.00000000E-01 -5.00000000E-02  0.00000000E+00
                      -1.50000000E-01 -5.00000000E-02  5.00000000E-02
                      -1.00000000E-01 -5.00000000E-02  1.00000000E-01
                      -5.00000000E-02 -5.00000000E-02  1.50000000E-01
                      -5.00000000E-02 -3.00000000E-01  0.00000000E+00
                      -1.00000000E-01 -2.50000000E-01  0.00000000E+00
                      -5.00000000E-02 -2.50000000E-01  5.00000000E-02
                      -1.50000000E-01 -2.00000000E-01  0.00000000E+00
                      -1.00000000E-01 -2.00000000E-01  5.00000000E-02
                      -5.00000000E-02 -2.00000000E-01  1.00000000E-01
                      -2.00000000E-01 -1.50000000E-01  0.00000000E+00
                      -1.50000000E-01 -1.50000000E-01  5.00000000E-02
                      -1.00000000E-01 -1.50000000E-01  1.00000000E-01
                      -5.00000000E-02 -1.50000000E-01  1.50000000E-01
                      -2.50000000E-01 -1.00000000E-01  0.00000000E+00
                      -2.00000000E-01 -1.00000000E-01  5.00000000E-02
                      -1.50000000E-01 -1.00000000E-01  1.00000000E-01
                      -1.00000000E-01 -1.00000000E-01  1.50000000E-01
                      -5.00000000E-02 -1.00000000E-01  2.00000000E-01
                      -3.00000000E-01 -5.00000000E-02  0.00000000E+00
                      -2.50000000E-01 -5.00000000E-02  5.00000000E-02
                      -2.00000000E-01 -5.00000000E-02  1.00000000E-01
                      -1.50000000E-01 -5.00000000E-02  1.50000000E-01
                      -1.00000000E-01 -5.00000000E-02  2.00000000E-01
                      -5.00000000E-02 -5.00000000E-02  2.50000000E-01
                      -5.00000000E-02 -4.00000000E-01  0.00000000E+00
                      -1.00000000E-01 -3.50000000E-01  0.00000000E+00
                      -5.00000000E-02 -3.50000000E-01  5.00000000E-02
                      -1.50000000E-01 -3.00000000E-01  0.00000000E+00
                      -1.00000000E-01 -3.00000000E-01  5.00000000E-02
                      -5.00000000E-02 -3.00000000E-01  1.00000000E-01
                      -2.00000000E-01 -2.50000000E-01  0.00000000E+00
                      -1.50000000E-01 -2.50000000E-01  5.00000000E-02
                      -1.00000000E-01 -2.50000000E-01  1.00000000E-01
                      -5.00000000E-02 -2.50000000E-01  1.50000000E-01
                      -2.50000000E-01 -2.00000000E-01  0.00000000E+00
                      -2.00000000E-01 -2.00000000E-01  5.00000000E-02
                      -1.50000000E-01 -2.00000000E-01  1.00000000E-01
                      -1.00000000E-01 -2.00000000E-01  1.50000000E-01
                      -5.00000000E-02 -2.00000000E-01  2.00000000E-01
                      -3.00000000E-01 -1.50000000E-01  0.00000000E+00
                       outvar_i_n : Printing only first  50 k-points.
           kptopt           2
         kptrlatt       10  -10   10    -10   10   10    -10  -10   10
          kptrlen      1.02006455E+02
P           mkmem        2000
P          mkqmem        2000
P          mk1mem        2000
            natom           2
            nband           5
           ndtset           1
            ngfft          50      50      50
             nkpt        2000
             nqpt           1
            nstep          10
             nsym          48
            ntime          10
           ntypat           1
              occ      2.000000  2.000000  2.000000  2.000000  0.000000
        optdriver           1
          rfatpol           1       2
            rfdir           1       1       1
           rfphon           1
            rprim      0.0000000000E+00  5.0000000000E-01  5.0000000000E-01
                       5.0000000000E-01  0.0000000000E+00  5.0000000000E-01
                       5.0000000000E-01  5.0000000000E-01  0.0000000000E+00
           shiftk      5.00000000E-01  5.00000000E-01  5.00000000E-01
          spgroup         227
           symrel      1  0  0   0  1  0   0  0  1      -1  0  0   0 -1  0   0  0 -1
                       0 -1  1   0 -1  0   1 -1  0       0  1 -1   0  1  0  -1  1  0
                      -1  0  0  -1  0  1  -1  1  0       1  0  0   1  0 -1   1 -1  0
                       0  1 -1   1  0 -1   0  0 -1       0 -1  1  -1  0  1   0  0  1
                      -1  0  0  -1  1  0  -1  0  1       1  0  0   1 -1  0   1  0 -1
                       0 -1  1   1 -1  0   0 -1  0       0  1 -1  -1  1  0   0  1  0
                       1  0  0   0  0  1   0  1  0      -1  0  0   0  0 -1   0 -1  0
                       0  1 -1   0  0 -1   1  0 -1       0 -1  1   0  0  1  -1  0  1
                      -1  0  1  -1  1  0  -1  0  0       1  0 -1   1 -1  0   1  0  0
                       0 -1  0   1 -1  0   0 -1  1       0  1  0  -1  1  0   0  1 -1
                       1  0 -1   0  0 -1   0  1 -1      -1  0  1   0  0  1   0 -1  1
                       0  1  0   0  0  1   1  0  0       0 -1  0   0  0 -1  -1  0  0
                       1  0 -1   0  1 -1   0  0 -1      -1  0  1   0 -1  1   0  0  1
                       0 -1  0   0 -1  1   1 -1  0       0  1  0   0  1 -1  -1  1  0
                      -1  0  1  -1  0  0  -1  1  0       1  0 -1   1  0  0   1 -1  0
                       0  1  0   1  0  0   0  0  1       0 -1  0  -1  0  0   0  0 -1
                       0  0 -1   0  1 -1   1  0 -1       0  0  1   0 -1  1  -1  0  1
                       1 -1  0   0 -1  1   0 -1  0      -1  1  0   0  1 -1   0  1  0
                       0  0  1   1  0  0   0  1  0       0  0 -1  -1  0  0   0 -1  0
                      -1  1  0  -1  0  0  -1  0  1       1 -1  0   1  0  0   1  0 -1
                       0  0  1   0  1  0   1  0  0       0  0 -1   0 -1  0  -1  0  0
                       1 -1  0   0 -1  0   0 -1  1      -1  1  0   0  1  0   0  1 -1
                       0  0 -1   1  0 -1   0  1 -1       0  0  1  -1  0  1   0 -1  1
                      -1  1  0  -1  0  1  -1  0  0       1 -1  0   1  0 -1   1  0  0
            tnons      0.0000000  0.0000000  0.0000000     0.2500000  0.2500000  0.2500000
                       0.0000000  0.0000000  0.0000000     0.2500000  0.2500000  0.2500000
                       0.0000000  0.0000000  0.0000000     0.2500000  0.2500000  0.2500000
                       0.0000000  0.0000000  0.0000000     0.2500000  0.2500000  0.2500000
                       0.0000000  0.0000000  0.0000000     0.2500000  0.2500000  0.2500000
                       0.0000000  0.0000000  0.0000000     0.2500000  0.2500000  0.2500000
                       0.0000000  0.0000000  0.0000000     0.2500000  0.2500000  0.2500000
                       0.0000000  0.0000000  0.0000000     0.2500000  0.2500000  0.2500000
                       0.0000000  0.0000000  0.0000000     0.2500000  0.2500000  0.2500000
                       0.0000000  0.0000000  0.0000000     0.2500000  0.2500000  0.2500000
                       0.0000000  0.0000000  0.0000000     0.2500000  0.2500000  0.2500000
                       0.0000000  0.0000000  0.0000000     0.2500000  0.2500000  0.2500000
                       0.0000000  0.0000000  0.0000000     0.2500000  0.2500000  0.2500000
                       0.0000000  0.0000000  0.0000000     0.2500000  0.2500000  0.2500000
                       0.0000000  0.0000000  0.0000000     0.2500000  0.2500000  0.2500000
                       0.0000000  0.0000000  0.0000000     0.2500000  0.2500000  0.2500000
                       0.0000000  0.0000000  0.0000000     0.2500000  0.2500000  0.2500000
                       0.0000000  0.0000000  0.0000000     0.2500000  0.2500000  0.2500000
                       0.0000000  0.0000000  0.0000000     0.2500000  0.2500000  0.2500000
                       0.0000000  0.0000000  0.0000000     0.2500000  0.2500000  0.2500000
                       0.0000000  0.0000000  0.0000000     0.2500000  0.2500000  0.2500000
                       0.0000000  0.0000000  0.0000000     0.2500000  0.2500000  0.2500000
                       0.0000000  0.0000000  0.0000000     0.2500000  0.2500000  0.2500000
                       0.0000000  0.0000000  0.0000000     0.2500000  0.2500000  0.2500000
           toldfe      1.00000000E-06 Hartree
            typat      1  1
              wtk        0.00050    0.00050    0.00050    0.00050    0.00050    0.00050
                         0.00050    0.00050    0.00050    0.00050    0.00050    0.00050
                         0.00050    0.00050    0.00050    0.00050    0.00050    0.00050
                         0.00050    0.00050    0.00050    0.00050    0.00050    0.00050
                         0.00050    0.00050    0.00050    0.00050    0.00050    0.00050
                         0.00050    0.00050    0.00050    0.00050    0.00050    0.00050
                         0.00050    0.00050    0.00050    0.00050    0.00050    0.00050
                         0.00050    0.00050    0.00050    0.00050    0.00050    0.00050
                         0.00050    0.00050
                       outvars : Printing only first  50 k-points.
           xangst      0.0000000000E+00  0.0000000000E+00  0.0000000000E+00
                       1.3494872792E+00  1.3494872792E+00  1.3494872792E+00
            xcart      0.0000000000E+00  0.0000000000E+00  0.0000000000E+00
                       2.5501613775E+00  2.5501613775E+00  2.5501613775E+00
             xred      0.0000000000E+00  0.0000000000E+00  0.0000000000E+00
                       2.5000000000E-01  2.5000000000E-01  2.5000000000E-01
            znucl       14.00000

================================================================================

 chkinp: Checking input parameters for consistency, jdtset=   1.

================================================================================
== DATASET  1 ==================================================================
-   nproc =    1

 Exchange-correlation functional for the present dataset will be:
  LDA: new Teter (4/93) with spin-polarized option - ixc=1
 Citation for XC functional:
  S. Goedecker, M. Teter, J. Huetter, PRB 54, 1703 (1996)

 Real(R)+Recip(G) space primitive vectors, cartesian coordinates (Bohr,Bohr^-1):
 R(1)=  0.0000000  5.1003228  5.1003228  G(1)= -0.0980330  0.0980330  0.0980330
 R(2)=  5.1003228  0.0000000  5.1003228  G(2)=  0.0980330 -0.0980330  0.0980330
 R(3)=  5.1003228  5.1003228  0.0000000  G(3)=  0.0980330  0.0980330 -0.0980330
 Unit cell volume ucvol=  2.6535237E+02 bohr^3
 Angles (23,13,12)=  6.00000000E+01  6.00000000E+01  6.00000000E+01 degrees
 setup1 : take into account q-point for computing boxcut.

 getcut: wavevector=  0.0000  0.0000  0.0000  ngfft=  50  50  50
         ecut(hartree)=     55.125   => boxcut(ratio)=   2.07487

--- Pseudopotential description ------------------------------------------------
- pspini: atom type   1  psp file is 14si.txt
- pspatm: opening atomic psp file    14si.txt
-  Troullier-Martins psp for element  Si        Thu Oct 27 17:31:21 EDT 1994
- 14.00000   4.00000    940714                znucl, zion, pspdat
    1    1    2    2      2001   0.00000      pspcod,pspxc,lmax,lloc,mmax,r2well
    0   5.907  14.692    1   2.0872718        l,e99.0,e99.9,nproj,rcpsp
   0.00000000   0.00000000   0.00000000   0.00000000     rms, ekb1, ekb2, epsatm
    1   2.617   4.181    1   2.0872718        l,e99.0,e99.9,nproj,rcpsp
   0.00000000   0.00000000   0.00000000   0.00000000     rms, ekb1, ekb2, epsatm
    2   0.000   0.000    0   2.0872718        l,e99.0,e99.9,nproj,rcpsp
   0.00000000   0.00000000   0.00000000   0.00000000     rms, ekb1, ekb2, epsatm
    1.80626423934776    0.22824404341771    1.17378968127746   rchrg,fchrg,qchrg
 pspatm: epsatm=    1.43386982
         --- l  ekb(1:nproj) -->
             0    3.287949
             1    1.849886
 pspatm: atomic psp has been read  and splines computed

   2.29419171E+01                                ecore*ucvol(ha*bohr**3)
--------------------------------------------------------------------------------

-inwffil : will read wavefunctions from disk file Si_i_DS1_WFK

 ==>  initialize data related to q vector <== 

 The list of irreducible perturbations for this q vector is:
    1)    idir= 1    ipert=   1

================================================================================

 The perturbation idir=   2  ipert=   1 is
 symmetric of a previously calculated perturbation.
 So, its SCF calculation is not needed.


 The perturbation idir=   3  ipert=   1 is
 symmetric of a previously calculated perturbation.
 So, its SCF calculation is not needed.


 The perturbation idir=   1  ipert=   2 is
 symmetric of a previously calculated perturbation.
 So, its SCF calculation is not needed.


 The perturbation idir=   2  ipert=   2 is
 symmetric of a previously calculated perturbation.
 So, its SCF calculation is not needed.


 The perturbation idir=   3  ipert=   2 is
 symmetric of a previously calculated perturbation.
 So, its SCF calculation is not needed.


--------------------------------------------------------------------------------
 Perturbation wavevector (in red.coord.)   0.000000  0.000000  0.000000
 Perturbation : displacement of atom   1   along direction   1
 Found     2 symmetries that leave the perturbation invariant.
 symkpt : the number of k-points, thanks to the symmetries,
 is reduced to  1050 .

--------------------------------------------------------------------------------

-inwffil : will read wavefunctions from disk file Si_i_DS1_WFK
--------------------------------------------------------------------------------

 Initialisation of the first-order wave-functions :
  ireadwf=   0

     iter   2DEtotal(Ha)        deltaE(Ha) residm    vres2
-ETOT  1   15.901019158738     -4.616E+01 7.078E+00 7.397E+04
 ETOT  2   7.3814163198842     -8.520E+00 5.621E-01 4.091E+02
 ETOT  3   7.3206045924361     -6.081E-02 3.015E+00 2.067E+01
 ETOT  4   7.3191470192211     -1.458E-03 3.864E-01 2.348E-01
 ETOT  5   7.3191343344852     -1.268E-05 1.788E+00 3.595E-03
 ETOT  6   7.3191341457556     -1.887E-07 2.563E-01 6.150E-05
 ETOT  7   7.3191341423198     -3.436E-09 1.252E+00 5.159E-07

 At SCF step    7, etot is converged : 
  for the second time, diff in etot=  3.436E-09 < toldfe=  1.000E-06
================================================================================

 ----iterations are completed or convergence reached----

 Mean square residual over all n,k,spin=   2.5478E-04; max=  1.2519E+00

 Thirteen components of 2nd-order total energy (hartree) are
 1,2,3: 0th-order hamiltonian combined with 1st-order wavefunctions
     kin0=   6.50877292E+01 eigvalue=  -3.88910566E+00  local=  -4.50749453E+01
 4,5,6: 1st-order hamiltonian combined with 1st and 0th-order wfs
 loc psp =  -1.65777151E+01  Hartree=   1.38820306E+01     xc=  -5.49516106E+00
 note that "loc psp" includes a xc core correction that could be resolved
 7,8,9: eventually, occupation + non-local contributions
    edocc=   1.91179078E+00     enl0=   2.83183951E+01   enl1=  -9.29037463E+01
 1-9 gives the relaxation energy (to be shifted if some occ is /=2.0)
   erelax=  -5.47407278E+01
 10,11,12 Non-relaxation  contributions : frozen-wavefunctions and Ewald
 fr.local=  -4.12939589E+00 fr.nonlo=   5.41309558E+01  Ewald=   1.31404710E+01
 13,14 Frozen wf xc core corrections (1) and (2)
 frxc 1  =  -7.93884919E+00  frxc 2 =   6.85668013E+00
 Resulting in :
 2DEtotal=    0.7319134142E+01 Ha. Also 2DEtotal=    0.199163768669E+03 eV
    (2DErelax=   -5.4740727751E+01 Ha. 2DEnonrelax=    6.2059861894E+01 Ha)
    (  non-var. 2DEtotal :    7.3191311712E+00 Ha)

================================================================================

 ---- first-order wavefunction calculations are completed ----


 ==> Compute Derivative Database <==
  
  2nd-order matrix (non-cartesian coordinates, masses not included,
   asr not included )
     j1       j2             matrix element
  dir pert dir pert     real part     imaginary part
  
   1    1   1    1         7.3191365256         0.0000000000
   1    1   2    1         3.6595682628         0.0000000000
   1    1   3    1         3.6595682628         0.0000000000
   1    1   1    2        -7.3191298189         0.0000000000
   1    1   2    2        -3.6595649094         0.0000000000
   1    1   3    2        -3.6595649094        -0.0000000000
   1    1   2    4         0.0000000000         0.0000000000
   1    1   3    4         0.0000000000         0.0000000000
  
   2    1   1    1         3.6595682628         0.0000000000
   2    1   2    1         7.3191365256         0.0000000000
   2    1   3    1         3.6595682628         0.0000000000
   2    1   1    2        -3.6595649094         0.0000000000
   2    1   2    2        -7.3191298189        -0.0000000000
   2    1   3    2        -3.6595649094        -0.0000000000
   2    1   1    4         0.0000000000         0.0000000000
   2    1   3    4         0.0000000000         0.0000000000
  
   3    1   1    1         3.6595682628         0.0000000000
   3    1   2    1         3.6595682628         0.0000000000
   3    1   3    1         7.3191365256         0.0000000000
   3    1   1    2        -3.6595649094        -0.0000000000
   3    1   2    2        -3.6595649094        -0.0000000000
   3    1   3    2        -7.3191298189        -0.0000000000
   3    1   1    4         0.0000000000         0.0000000000
   3    1   2    4         0.0000000000         0.0000000000
  
   1    2   1    1        -7.3191298189        -0.0000000000
   1    2   2    1        -3.6595649094        -0.0000000000
   1    2   3    1        -3.6595649094         0.0000000000
   1    2   1    2         7.3191365256         0.0000000000
   1    2   2    2         3.6595682628         0.0000000000
   1    2   3    2         3.6595682628         0.0000000000
   1    2   2    4         0.0000000000         0.0000000000
   1    2   3    4         0.0000000000         0.0000000000
  
   2    2   1    1        -3.6595649094        -0.0000000000
   2    2   2    1        -7.3191298189         0.0000000000
   2    2   3    1        -3.6595649094         0.0000000000
   2    2   1    2         3.6595682628         0.0000000000
   2    2   2    2         7.3191365256         0.0000000000
   2    2   3    2         3.6595682628         0.0000000000
   2    2   1    4         0.0000000000         0.0000000000
   2    2   3    4         0.0000000000         0.0000000000
  
   3    2   1    1        -3.6595649094         0.0000000000
   3    2   2    1        -3.6595649094         0.0000000000
   3    2   3    1        -7.3191298189         0.0000000000
   3    2   1    2         3.6595682628         0.0000000000
   3    2   2    2         3.6595682628         0.0000000000
   3    2   3    2         7.3191365256         0.0000000000
   3    2   1    4         0.0000000000         0.0000000000
   3    2   2    4         0.0000000000         0.0000000000
  
   1    4   2    1         0.0000000000         0.0000000000
   1    4   3    1         0.0000000000         0.0000000000
   1    4   2    2         0.0000000000         0.0000000000
   1    4   3    2         0.0000000000         0.0000000000
  
   2    4   1    1         0.0000000000         0.0000000000
   2    4   3    1         0.0000000000         0.0000000000
   2    4   1    2         0.0000000000         0.0000000000
   2    4   3    2         0.0000000000         0.0000000000
  
   3    4   1    1         0.0000000000         0.0000000000
   3    4   2    1         0.0000000000         0.0000000000
   3    4   1    2         0.0000000000         0.0000000000
   3    4   2    2         0.0000000000         0.0000000000
  
  
  Dynamical matrix, in cartesian coordinates,
   if specified in the inputs, asr has been imposed
     j1       j2             matrix element
  dir pert dir pert     real part    imaginary part
  
   1    1   1    1         0.1406807041         0.0000000000
   1    1   2    1        -0.0000000000         0.0000000000
   1    1   3    1         0.0000000000         0.0000000000
   1    1   1    2        -0.1406805752         0.0000000000
   1    1   2    2         0.0000000000        -0.0000000000
   1    1   3    2         0.0000000000        -0.0000000000
  
   2    1   1    1        -0.0000000000         0.0000000000
   2    1   2    1         0.1406807041         0.0000000000
   2    1   3    1        -0.0000000000         0.0000000000
   2    1   1    2         0.0000000000        -0.0000000000
   2    1   2    2        -0.1406805752        -0.0000000000
   2    1   3    2        -0.0000000000         0.0000000000
  
   3    1   1    1        -0.0000000000         0.0000000000
   3    1   2    1        -0.0000000000         0.0000000000
   3    1   3    1         0.1406807041         0.0000000000
   3    1   1    2         0.0000000000        -0.0000000000
   3    1   2    2        -0.0000000000         0.0000000000
   3    1   3    2        -0.1406805752         0.0000000000
  
   1    2   1    1        -0.1406805752        -0.0000000000
   1    2   2    1         0.0000000000         0.0000000000
   1    2   3    1         0.0000000000         0.0000000000
   1    2   1    2         0.1406807041         0.0000000000
   1    2   2    2         0.0000000000         0.0000000000
   1    2   3    2        -0.0000000000         0.0000000000
  
   2    2   1    1         0.0000000000         0.0000000000
   2    2   2    1        -0.1406805752         0.0000000000
   2    2   3    1        -0.0000000000        -0.0000000000
   2    2   1    2        -0.0000000000         0.0000000000
   2    2   2    2         0.1406807041         0.0000000000
   2    2   3    2        -0.0000000000         0.0000000000
  
   3    2   1    1         0.0000000000         0.0000000000
   3    2   2    1        -0.0000000000        -0.0000000000
   3    2   3    1        -0.1406805752        -0.0000000000
   3    2   1    2        -0.0000000000         0.0000000000
   3    2   2    2        -0.0000000000         0.0000000000
   3    2   3    2         0.1406807041         0.0000000000
 
  Phonon wavevector (reduced coordinates) :  0.00000  0.00000  0.00000
 Phonon energies in Hartree :
   1.586793E-06  1.586794E-06  1.586796E-06  2.344288E-03  2.344288E-03
   2.344288E-03
 Phonon frequencies in cm-1    :
-  3.482609E-01  3.482610E-01  3.482614E-01  5.145118E+02  5.145118E+02
-  5.145118E+02

== END DATASET(S) ==============================================================
================================================================================
  
 -outvars: echo values of variables after computation  --------
            acell      1.0200645510E+01  1.0200645510E+01  1.0200645510E+01 Bohr
              amu      2.80855000E+01
           diemac      1.20000000E+01
          dilatmx      1.05000000E+00
             ecut      5.00000000E+01 Hartree
           ecutsm      5.00000000E-01 Hartree
           etotal1     7.3191341423E+00
            fcart1     0.0000000000E+00  0.0000000000E+00  0.0000000000E+00
                       0.0000000000E+00  0.0000000000E+00  0.0000000000E+00
-          fftalg         112
           irdwfk           1
           jdtset        1
              kpt     -5.00000000E-02 -1.00000000E-01  0.00000000E+00
                      -1.00000000E-01 -5.00000000E-02  0.00000000E+00
                      -5.00000000E-02 -5.00000000E-02  5.00000000E-02
                      -5.00000000E-02 -2.00000000E-01  0.00000000E+00
                      -1.00000000E-01 -1.50000000E-01  0.00000000E+00
                      -5.00000000E-02 -1.50000000E-01  5.00000000E-02
                      -1.50000000E-01 -1.00000000E-01  0.00000000E+00
                      -1.00000000E-01 -1.00000000E-01  5.00000000E-02
                      -5.00000000E-02 -1.00000000E-01  1.00000000E-01
                      -2.00000000E-01 -5.00000000E-02  0.00000000E+00
                      -1.50000000E-01 -5.00000000E-02  5.00000000E-02
                      -1.00000000E-01 -5.00000000E-02  1.00000000E-01
                      -5.00000000E-02 -5.00000000E-02  1.50000000E-01
                      -5.00000000E-02 -3.00000000E-01  0.00000000E+00
                      -1.00000000E-01 -2.50000000E-01  0.00000000E+00
                      -5.00000000E-02 -2.50000000E-01  5.00000000E-02
                      -1.50000000E-01 -2.00000000E-01  0.00000000E+00
                      -1.00000000E-01 -2.00000000E-01  5.00000000E-02
                      -5.00000000E-02 -2.00000000E-01  1.00000000E-01
                      -2.00000000E-01 -1.50000000E-01  0.00000000E+00
                      -1.50000000E-01 -1.50000000E-01  5.00000000E-02
                      -1.00000000E-01 -1.50000000E-01  1.00000000E-01
                      -5.00000000E-02 -1.50000000E-01  1.50000000E-01
                      -2.50000000E-01 -1.00000000E-01  0.00000000E+00
                      -2.00000000E-01 -1.00000000E-01  5.00000000E-02
                      -1.50000000E-01 -1.00000000E-01  1.00000000E-01
                      -1.00000000E-01 -1.00000000E-01  1.50000000E-01
                      -5.00000000E-02 -1.00000000E-01  2.00000000E-01
                      -3.00000000E-01 -5.00000000E-02  0.00000000E+00
                      -2.50000000E-01 -5.00000000E-02  5.00000000E-02
                      -2.00000000E-01 -5.00000000E-02  1.00000000E-01
                      -1.50000000E-01 -5.00000000E-02  1.50000000E-01
                      -1.00000000E-01 -5.00000000E-02  2.00000000E-01
                      -5.00000000E-02 -5.00000000E-02  2.50000000E-01
                      -5.00000000E-02 -4.00000000E-01  0.00000000E+00
                      -1.00000000E-01 -3.50000000E-01  0.00000000E+00
                      -5.00000000E-02 -3.50000000E-01  5.00000000E-02
                      -1.50000000E-01 -3.00000000E-01  0.00000000E+00
                      -1.00000000E-01 -3.00000000E-01  5.00000000E-02
                      -5.00000000E-02 -3.00000000E-01  1.00000000E-01
                      -2.00000000E-01 -2.50000000E-01  0.00000000E+00
                      -1.50000000E-01 -2.50000000E-01  5.00000000E-02
                      -1.00000000E-01 -2.50000000E-01  1.00000000E-01
                      -5.00000000E-02 -2.50000000E-01  1.50000000E-01
                      -2.50000000E-01 -2.00000000E-01  0.00000000E+00
                      -2.00000000E-01 -2.00000000E-01  5.00000000E-02
                      -1.50000000E-01 -2.00000000E-01  1.00000000E-01
                      -1.00000000E-01 -2.00000000E-01  1.50000000E-01
                      -5.00000000E-02 -2.00000000E-01  2.00000000E-01
                      -3.00000000E-01 -1.50000000E-01  0.00000000E+00
                       outvar_i_n : Printing only first  50 k-points.
           kptopt           2
         kptrlatt       10  -10   10    -10   10   10    -10  -10   10
          kptrlen      1.02006455E+02
P           mkmem        2000
P          mkqmem        2000
P          mk1mem        2000
            natom           2
            nband           5
           ndtset           1
            ngfft          50      50      50
             nkpt        2000
             nqpt           1
            nstep          10
             nsym          48
            ntime          10
           ntypat           1
              occ      2.000000  2.000000  2.000000  2.000000  0.000000
        optdriver           1
          rfatpol           1       2
            rfdir           1       1       1
           rfphon           1
            rprim      0.0000000000E+00  5.0000000000E-01  5.0000000000E-01
                       5.0000000000E-01  0.0000000000E+00  5.0000000000E-01
                       5.0000000000E-01  5.0000000000E-01  0.0000000000E+00
           shiftk      5.00000000E-01  5.00000000E-01  5.00000000E-01
          spgroup         227
           strten1     0.0000000000E+00  0.0000000000E+00  0.0000000000E+00
                       0.0000000000E+00  0.0000000000E+00  0.0000000000E+00
           symrel      1  0  0   0  1  0   0  0  1      -1  0  0   0 -1  0   0  0 -1
                       0 -1  1   0 -1  0   1 -1  0       0  1 -1   0  1  0  -1  1  0
                      -1  0  0  -1  0  1  -1  1  0       1  0  0   1  0 -1   1 -1  0
                       0  1 -1   1  0 -1   0  0 -1       0 -1  1  -1  0  1   0  0  1
                      -1  0  0  -1  1  0  -1  0  1       1  0  0   1 -1  0   1  0 -1
                       0 -1  1   1 -1  0   0 -1  0       0  1 -1  -1  1  0   0  1  0
                       1  0  0   0  0  1   0  1  0      -1  0  0   0  0 -1   0 -1  0
                       0  1 -1   0  0 -1   1  0 -1       0 -1  1   0  0  1  -1  0  1
                      -1  0  1  -1  1  0  -1  0  0       1  0 -1   1 -1  0   1  0  0
                       0 -1  0   1 -1  0   0 -1  1       0  1  0  -1  1  0   0  1 -1
                       1  0 -1   0  0 -1   0  1 -1      -1  0  1   0  0  1   0 -1  1
                       0  1  0   0  0  1   1  0  0       0 -1  0   0  0 -1  -1  0  0
                       1  0 -1   0  1 -1   0  0 -1      -1  0  1   0 -1  1   0  0  1
                       0 -1  0   0 -1  1   1 -1  0       0  1  0   0  1 -1  -1  1  0
                      -1  0  1  -1  0  0  -1  1  0       1  0 -1   1  0  0   1 -1  0
                       0  1  0   1  0  0   0  0  1       0 -1  0  -1  0  0   0  0 -1
                       0  0 -1   0  1 -1   1  0 -1       0  0  1   0 -1  1  -1  0  1
                       1 -1  0   0 -1  1   0 -1  0      -1  1  0   0  1 -1   0  1  0
                       0  0  1   1  0  0   0  1  0       0  0 -1  -1  0  0   0 -1  0
                      -1  1  0  -1  0  0  -1  0  1       1 -1  0   1  0  0   1  0 -1
                       0  0  1   0  1  0   1  0  0       0  0 -1   0 -1  0  -1  0  0
                       1 -1  0   0 -1  0   0 -1  1      -1  1  0   0  1  0   0  1 -1
                       0  0 -1   1  0 -1   0  1 -1       0  0  1  -1  0  1   0 -1  1
                      -1  1  0  -1  0  1  -1  0  0       1 -1  0   1  0 -1   1  0  0
            tnons      0.0000000  0.0000000  0.0000000     0.2500000  0.2500000  0.2500000
                       0.0000000  0.0000000  0.0000000     0.2500000  0.2500000  0.2500000
                       0.0000000  0.0000000  0.0000000     0.2500000  0.2500000  0.2500000
                       0.0000000  0.0000000  0.0000000     0.2500000  0.2500000  0.2500000
                       0.0000000  0.0000000  0.0000000     0.2500000  0.2500000  0.2500000
                       0.0000000  0.0000000  0.0000000     0.2500000  0.2500000  0.2500000
                       0.0000000  0.0000000  0.0000000     0.2500000  0.2500000  0.2500000
                       0.0000000  0.0000000  0.0000000     0.2500000  0.2500000  0.2500000
                       0.0000000  0.0000000  0.0000000     0.2500000  0.2500000  0.2500000
                       0.0000000  0.0000000  0.0000000     0.2500000  0.2500000  0.2500000
                       0.0000000  0.0000000  0.0000000     0.2500000  0.2500000  0.2500000
                       0.0000000  0.0000000  0.0000000     0.2500000  0.2500000  0.2500000
                       0.0000000  0.0000000  0.0000000     0.2500000  0.2500000  0.2500000
                       0.0000000  0.0000000  0.0000000     0.2500000  0.2500000  0.2500000
                       0.0000000  0.0000000  0.0000000     0.2500000  0.2500000  0.2500000
                       0.0000000  0.0000000  0.0000000     0.2500000  0.2500000  0.2500000
                       0.0000000  0.0000000  0.0000000     0.2500000  0.2500000  0.2500000
                       0.0000000  0.0000000  0.0000000     0.2500000  0.2500000  0.2500000
                       0.0000000  0.0000000  0.0000000     0.2500000  0.2500000  0.2500000
                       0.0000000  0.0000000  0.0000000     0.2500000  0.2500000  0.2500000
                       0.0000000  0.0000000  0.0000000     0.2500000  0.2500000  0.2500000
                       0.0000000  0.0000000  0.0000000     0.2500000  0.2500000  0.2500000
                       0.0000000  0.0000000  0.0000000     0.2500000  0.2500000  0.2500000
                       0.0000000  0.0000000  0.0000000     0.2500000  0.2500000  0.2500000
           toldfe      1.00000000E-06 Hartree
            typat      1  1
              wtk        0.00050    0.00050    0.00050    0.00050    0.00050    0.00050
                         0.00050    0.00050    0.00050    0.00050    0.00050    0.00050
                         0.00050    0.00050    0.00050    0.00050    0.00050    0.00050
                         0.00050    0.00050    0.00050    0.00050    0.00050    0.00050
                         0.00050    0.00050    0.00050    0.00050    0.00050    0.00050
                         0.00050    0.00050    0.00050    0.00050    0.00050    0.00050
                         0.00050    0.00050    0.00050    0.00050    0.00050    0.00050
                         0.00050    0.00050    0.00050    0.00050    0.00050    0.00050
                         0.00050    0.00050
                       outvars : Printing only first  50 k-points.
           xangst      0.0000000000E+00  0.0000000000E+00  0.0000000000E+00
                       1.3494872792E+00  1.3494872792E+00  1.3494872792E+00
            xcart      0.0000000000E+00  0.0000000000E+00  0.0000000000E+00
                       2.5501613775E+00  2.5501613775E+00  2.5501613775E+00
             xred      0.0000000000E+00  0.0000000000E+00  0.0000000000E+00
                       2.5000000000E-01  2.5000000000E-01  2.5000000000E-01
            znucl       14.00000

================================================================================


- Timing analysis has been suppressed with timopt=0



================================================================================

 Suggested references for the acknowledgment of ABINIT usage.

 The users of ABINIT have little formal obligations with respect to the ABINIT group
 (those specified in the GNU General Public License, http://www.gnu.org/copyleft/gpl.txt).
 However, it is common practice in the scientific literature,
 to acknowledge the efforts of people that have made the research possible.
 In this spirit, please find below suggested citations of work written by ABINIT developers,
 corresponding to implementations inside of ABINIT that you have used in the present run.
 Note also that it will be of great value to readers of publications presenting these results,
 to read papers enabling them to understand the theoretical formalism and details
 of the ABINIT implementation.
 For information on why they are suggested, see also http://www.abinit.org/about/?text=acknowledgments.
-
- [1] Recent developments in the ABINIT software package
- X.Gonze, F.Jollet, F.Abreu Araujo, D.Adams, B.Amadon, T.Applencourt,
- C.Audouze, J.-M.Beuken, J.Bieder, A.Bokhanchuk, E.Bousquet, F.Bruneval
- D.Caliste, M.Cote, F.Dahm, F.Da Pieve, M.Delaveau, M.Di Gennaro,
- B.Dorado, C.Espejo, G.Geneste, L.Genovese, A.Gerossier, M.Giantomassi,
- Y.Gillet, D.R.Hamann, L.He, G.Jomard, J.Laflamme Janssen, S.Le Roux,
- A.Levitt, A.Lherbier, F.Liu, I.Lukacevic, A.Martin, C.Martins,
- M.J.T.Oliveira, S.Ponce, Y.Pouillon, T.Rangel, G.-M.Rignanese,
- A.H.Romero, B.Rousseau, O.Rubel, A.A.Shukri, M.Stankovski, M.Torrent,
- Comment : the fourth generic paper describing the ABINIT project.
- Note that a version of this paper, that is not formatted for Computer Phys. Comm. 
- is available at http://www.abinit.org/about/ABINIT16.pdf .
- The licence allows the authors to put it on the Web.
-
- [2] First-principles responses of solids to atomic displacements and homogeneous electric fields:,
- implementation of a conjugate-gradient algorithm. X. Gonze, Phys. Rev. B55, 10337 (1997).
- Comment : Non-vanishing rfphon and/or rfelfd, in the norm-conserving case.
-
- [3] Dynamical matrices, Born effective charges, dielectric permittivity tensors, and ,
- interatomic force constants from density-functional perturbation theory,
- X. Gonze and C. Lee, Phys. Rev. B55, 10355 (1997).
- Comment : Non-vanishing rfphon and/or rfelfd, in the norm-conserving case.
-
- [4] ABINIT : First-principles approach of materials and nanosystem properties.
- X. Gonze, B. Amadon, P.-M. Anglade, J.-M. Beuken, F. Bottin, P. Boulanger, F. Bruneval,
- D. Caliste, R. Caracas, M. Cote, T. Deutsch, L. Genovese, Ph. Ghosez, M. Giantomassi
- S. Goedecker, D.R. Hamann, P. Hermet, F. Jollet, G. Jomard, S. Leroux, M. Mancini, S. Mazevet,
- M.J.T. Oliveira, G. Onida, Y. Pouillon, T. Rangel, G.-M. Rignanese, D. Sangalli, R. Shaltaf,
- M. Torrent, M.J. Verstraete, G. Zerah, J.W. Zwanziger
- Computer Phys. Comm. 180, 2582-2615 (2009).
- Comment : the third generic paper describing the ABINIT project.
- Note that a version of this paper, that is not formatted for Computer Phys. Comm. 
- is available at http://www.abinit.org/about/ABINIT_CPC_v10.pdf .
- The licence allows the authors to put it on the Web.
-
- [5] A brief introduction to the ABINIT software package.
- X. Gonze, G.-M. Rignanese, M. Verstraete, J.-M. Beuken, Y. Pouillon, R. Caracas, F. Jollet,
- M. Torrent, G. Zerah, M. Mikami, Ph. Ghosez, M. Veithen, J.-Y. Raty, V. Olevano, F. Bruneval,
- L. Reining, R. Godby, G. Onida, D.R. Hamann, and D.C. Allan.
- Z. Kristallogr. 220, 558-562 (2005).
- Comment : the second generic paper describing the ABINIT project. Note that this paper
- should be cited especially if you are using the GW part of ABINIT, as several authors
- of this part are not in the list of authors of the first or third paper.
- The .pdf of the latter paper is available at http://www.abinit.org/about/zfk_0505-06_558-562.pdf.
- Note that it should not redistributed (Copyright by Oldenburg Wissenshaftverlag,
- the licence allows the authors to put it on the Web).
-
- Proc.   0 individual time (sec): cpu=       1014.4  wall=       1015.7

================================================================================

 Calculation completed.
.Delivered  18 WARNINGs and   2 COMMENTs to log file.
+Overall time at end (sec) : cpu=       1014.4  wall=       1015.7
