## SLURM PROLOG ###############################################################
##    Job ID : 19320899
##  Job Name : abinit_lattice_param
##  Nodelist : node829
##      CPUs : 
##  Mem/Node : 49152 MB
## Directory : /gpfs/scratch/ssamanta/ENGN_2930/lattice_param
##   Started : Thu Apr 26 11:54:30 EDT 2018
###############################################################################
module: loading 'abinit/8.0.7'
  ABINIT 8.0.7
  
  Give name for formatted input file: 
Si_in.txt
  Give name for formatted output file:
Si_out.txt
  Give root name for generic input files:
Si_i
  Give root name for generic output files:
Si_o
  Give root name for generic temporary files:
Si_

.Version 8.0.7 of ABINIT 
.(MPI version, prepared for a x86_64_linux_gnu4.9 computer) 

.Copyright (C) 1998-2016 ABINIT group . 
 ABINIT comes with ABSOLUTELY NO WARRANTY.
 It is free software, and you are welcome to redistribute it
 under certain conditions (GNU General Public License,
 see ~abinit/COPYING or http://www.gnu.org/copyleft/gpl.txt).

 ABINIT is a project of the Universite Catholique de Louvain,
 Corning Inc. and other collaborators, see ~abinit/doc/developers/contributors.txt .
 Please read ~abinit/doc/users/acknowledgments.html for suggested
 acknowledgments of the ABINIT effort.
 For more information, see http://www.abinit.org .

.Starting date : Thu 26 Apr 2018.
- ( at 11h54 )
  

 ++++++++++++++++++++++++++++++++++++++++++++++++++++++++++++++++++++++++++++++

 === Build Information === 
  Version       : 8.0.7
  Build target  : x86_64_linux_gnu4.9
  Build date    : 20160627

 === Compiler Suite === 
  C compiler       : gnu4.9
  C++ compiler     : gnu4.9
  Fortran compiler : gnu4.9
  CFLAGS           :  -g -O2 -mtune=native -march=native
  CXXFLAGS         :  -g -O2 -mtune=native -march=native
  FCFLAGS          :  -g -ffree-line-length-none
  FC_LDFLAGS       : 

 === Optimizations === 
  Debug level        : basic
  Optimization level : standard
  Architecture       : intel_xeon

 === Multicore === 
  Parallel build : yes
  Parallel I/O   : auto
  openMP support : no
  GPU support    : no

 === Connectors / Fallbacks === 
  Connectors on : yes
  Fallbacks on  : yes
  DFT flavor    : none
  FFT flavor    : none
  LINALG flavor : netlib-fallback
  MATH flavor   : none
  TIMER flavor  : abinit
  TRIO flavor   : none

 === Experimental features === 
  Bindings            : @enable_bindings@
  Exports             : no
  GW double-precision : no

 ++++++++++++++++++++++++++++++++++++++++++++++++++++++++++++++++++++++++++++++


 ++++++++++++++++++++++++++++++++++++++++++++++++++++++++++++++++++++++++++++++
 Default optimizations:
   -O2 -mtune=native -march=native


 Optimizations for 20_datashare:
   -O0


 ++++++++++++++++++++++++++++++++++++++++++++++++++++++++++++++++++++++++++++++


 ++++++++++++++++++++++++++++++++++++++++++++++++++++++++++++++++++++++++++++++
 CPP options activated during the build:

                    CC_GNU                   CXX_GNU                    FC_GNU
 
 HAVE_FC_ALLOCATABLE_DT...             HAVE_FC_ASYNC         HAVE_FC_BACKTRACE
 
  HAVE_FC_COMMAND_ARGUMENT      HAVE_FC_COMMAND_LINE        HAVE_FC_CONTIGUOUS
 
           HAVE_FC_CPUTIME              HAVE_FC_EXIT             HAVE_FC_FLUSH
 
             HAVE_FC_GAMMA            HAVE_FC_GETENV          HAVE_FC_INT_QUAD
 
             HAVE_FC_IOMSG     HAVE_FC_ISO_C_BINDING  HAVE_FC_ISO_FORTRAN_2008
 
        HAVE_FC_LONG_LINES        HAVE_FC_MOVE_ALLOC           HAVE_FC_PRIVATE
 
         HAVE_FC_PROTECTED         HAVE_FC_STREAM_IO            HAVE_FC_SYSTEM
 
          HAVE_FORTRAN2003        HAVE_LIBPAW_ABINIT      HAVE_LIBTETRA_ABINIT
 
                  HAVE_MPI                 HAVE_MPI1               HAVE_MPI_IO
 
 HAVE_MPI_TYPE_CREATE_S...                HAVE_NUMPY             HAVE_OS_LINUX
 
                HAVE_TIMER         HAVE_TIMER_ABINIT            HAVE_TIMER_MPI
 
         HAVE_TIMER_SERIAL              USE_MACROAVE                            
 ++++++++++++++++++++++++++++++++++++++++++++++++++++++++++++++++++++++++++++++

- input  file    -> Si_in.txt
- output file    -> Si_out.txt
- root for input  files -> Si_i
- root for output files -> Si_o

-instrng: 65 lines of input have been read from file Si_in.txt

  status : statnu, output_rate, shift_rate=           1           0           1
 level,routine=           3 init istatr   
 active(level)=           1
 counter,actual_counter(level,1:2)=           0           0           0
 List of active levels :
  Active level number=           3

 Please give name of formatted atomic psp file
 iofn2 : for atom type 1, psp file is 14si.txt
  read the values zionpsp=  4.0 , pspcod=   1 , lmax=   2

 inpspheads: deduce mpsang = 3, n1xccc = 2501.

 invars1m : enter jdtset= 1
 invars1 : treat image number: 1

 symlatt : the Bravais lattice is cF (face-centered cubic)
  xred   is defined in input file
 ingeo : takes atomic coordinates from input array xred

 symlatt : the Bravais lattice is cF (face-centered cubic)

 symlatt : the Bravais lattice is cF (face-centered cubic)
 symspgr : spgroup= 227  Fd -3 m   (=Oh^7)
 ingeo : angdeg(1:3)=   60.00000000   60.00000000   60.00000000
       Simple Lattice Grid
 invars2: take the default value of fband=  1.25000000E-01
       Simple Lattice Grid
 
 invars2 : Printing the k point grid (values of kptns - max 100 of them)
 nkpt=     110
     ikpt istwfk    wtk       --------- reduced coordinates ---------  --------- cartesian coordinates ---------
       1     1  6.000000E-03 -5.000000E-02 -1.000000E-01  0.000000E+00 -4.911591E-03  4.911591E-03 -1.473477E-02
       2     1  6.000000E-03 -5.000000E-02 -2.000000E-01  0.000000E+00 -1.473477E-02  1.473477E-02 -2.455796E-02
       3     1  6.000000E-03 -1.000000E-01 -1.500000E-01  0.000000E+00 -4.911591E-03  4.911591E-03 -2.455796E-02
       4     1  1.200000E-02 -5.000000E-02 -1.500000E-01  5.000000E-02 -4.911591E-03  1.473477E-02 -2.455796E-02
       5     1  6.000000E-03 -5.000000E-02 -3.000000E-01  0.000000E+00 -2.455796E-02  2.455796E-02 -3.438114E-02
       6     1  6.000000E-03 -1.000000E-01 -2.500000E-01  0.000000E+00 -1.473477E-02  1.473477E-02 -3.438114E-02
       7     1  1.200000E-02 -5.000000E-02 -2.500000E-01  5.000000E-02 -1.473477E-02  2.455796E-02 -3.438114E-02
       8     1  6.000000E-03 -1.500000E-01 -2.000000E-01  0.000000E+00 -4.911591E-03  4.911591E-03 -3.438114E-02
       9     1  1.200000E-02 -1.000000E-01 -2.000000E-01  5.000000E-02 -4.911591E-03  1.473477E-02 -3.438114E-02
      10     1  1.200000E-02 -5.000000E-02 -2.000000E-01  1.000000E-01 -4.911591E-03  2.455796E-02 -3.438114E-02
      11     1  6.000000E-03 -5.000000E-02 -4.000000E-01  0.000000E+00 -3.438114E-02  3.438114E-02 -4.420432E-02
      12     1  6.000000E-03 -1.000000E-01 -3.500000E-01  0.000000E+00 -2.455796E-02  2.455796E-02 -4.420432E-02
      13     1  1.200000E-02 -5.000000E-02 -3.500000E-01  5.000000E-02 -2.455796E-02  3.438114E-02 -4.420432E-02
      14     1  6.000000E-03 -1.500000E-01 -3.000000E-01  0.000000E+00 -1.473477E-02  1.473477E-02 -4.420432E-02
      15     1  1.200000E-02 -1.000000E-01 -3.000000E-01  5.000000E-02 -1.473477E-02  2.455796E-02 -4.420432E-02
      16     1  1.200000E-02 -5.000000E-02 -3.000000E-01  1.000000E-01 -1.473477E-02  3.438114E-02 -4.420432E-02
      17     1  6.000000E-03 -2.000000E-01 -2.500000E-01  0.000000E+00 -4.911591E-03  4.911591E-03 -4.420432E-02
      18     1  1.200000E-02 -1.500000E-01 -2.500000E-01  5.000000E-02 -4.911591E-03  1.473477E-02 -4.420432E-02
      19     1  1.200000E-02 -1.000000E-01 -2.500000E-01  1.000000E-01 -4.911591E-03  2.455796E-02 -4.420432E-02
      20     1  1.200000E-02 -5.000000E-02 -2.500000E-01  1.500000E-01 -4.911591E-03  3.438114E-02 -4.420432E-02
      21     1  6.000000E-03 -5.000000E-02  5.000000E-01  0.000000E+00  5.402750E-02 -5.402750E-02  4.420432E-02
      22     1  6.000000E-03 -1.000000E-01 -4.500000E-01  0.000000E+00 -3.438114E-02  3.438114E-02 -5.402750E-02
      23     1  1.200000E-02 -5.000000E-02 -4.500000E-01  5.000000E-02 -3.438114E-02  4.420432E-02 -5.402750E-02
      24     1  6.000000E-03 -1.500000E-01 -4.000000E-01  0.000000E+00 -2.455796E-02  2.455796E-02 -5.402750E-02
      25     1  1.200000E-02 -1.000000E-01 -4.000000E-01  5.000000E-02 -2.455796E-02  3.438114E-02 -5.402750E-02
      26     1  1.200000E-02 -5.000000E-02 -4.000000E-01  1.000000E-01 -2.455796E-02  4.420432E-02 -5.402750E-02
      27     1  6.000000E-03 -2.000000E-01 -3.500000E-01  0.000000E+00 -1.473477E-02  1.473477E-02 -5.402750E-02
      28     1  1.200000E-02 -1.500000E-01 -3.500000E-01  5.000000E-02 -1.473477E-02  2.455796E-02 -5.402750E-02
      29     1  1.200000E-02 -1.000000E-01 -3.500000E-01  1.000000E-01 -1.473477E-02  3.438114E-02 -5.402750E-02
      30     1  1.200000E-02 -5.000000E-02 -3.500000E-01  1.500000E-01 -1.473477E-02  4.420432E-02 -5.402750E-02
      31     1  6.000000E-03 -2.500000E-01 -3.000000E-01  0.000000E+00 -4.911591E-03  4.911591E-03 -5.402750E-02
      32     1  1.200000E-02 -2.000000E-01 -3.000000E-01  5.000000E-02 -4.911591E-03  1.473477E-02 -5.402750E-02
      33     1  1.200000E-02 -1.500000E-01 -3.000000E-01  1.000000E-01 -4.911591E-03  2.455796E-02 -5.402750E-02
      34     1  1.200000E-02 -1.000000E-01 -3.000000E-01  1.500000E-01 -4.911591E-03  3.438114E-02 -5.402750E-02
      35     1  1.200000E-02 -5.000000E-02 -3.000000E-01  2.000000E-01 -4.911591E-03  4.420432E-02 -5.402750E-02
      36     1  6.000000E-03 -5.000000E-02  4.000000E-01  0.000000E+00  4.420432E-02 -4.420432E-02  3.438114E-02
      37     1  6.000000E-03 -1.000000E-01  4.500000E-01  0.000000E+00  5.402750E-02 -5.402750E-02  3.438114E-02
      38     1  6.000000E-03 -1.500000E-01  5.000000E-01  0.000000E+00  6.385069E-02 -6.385069E-02  3.438114E-02
      39     1  1.200000E-02 -1.000000E-01  5.000000E-01  5.000000E-02  6.385069E-02 -5.402750E-02  3.438114E-02
      40     1  6.000000E-03 -2.000000E-01 -4.500000E-01  0.000000E+00 -2.455796E-02  2.455796E-02 -6.385069E-02
      41     1  1.200000E-02 -1.500000E-01 -4.500000E-01  5.000000E-02 -2.455796E-02  3.438114E-02 -6.385069E-02
      42     1  1.200000E-02 -1.000000E-01 -4.500000E-01  1.000000E-01 -2.455796E-02  4.420432E-02 -6.385069E-02
      43     1  1.200000E-02 -5.000000E-02 -4.500000E-01  1.500000E-01 -2.455796E-02  5.402750E-02 -6.385069E-02
      44     1  6.000000E-03 -2.500000E-01 -4.000000E-01  0.000000E+00 -1.473477E-02  1.473477E-02 -6.385069E-02
      45     1  1.200000E-02 -2.000000E-01 -4.000000E-01  5.000000E-02 -1.473477E-02  2.455796E-02 -6.385069E-02
      46     1  1.200000E-02 -1.500000E-01 -4.000000E-01  1.000000E-01 -1.473477E-02  3.438114E-02 -6.385069E-02
      47     1  1.200000E-02 -1.000000E-01 -4.000000E-01  1.500000E-01 -1.473477E-02  4.420432E-02 -6.385069E-02
      48     1  1.200000E-02 -5.000000E-02 -4.000000E-01  2.000000E-01 -1.473477E-02  5.402750E-02 -6.385069E-02
      49     1  6.000000E-03 -3.000000E-01 -3.500000E-01  0.000000E+00 -4.911591E-03  4.911591E-03 -6.385069E-02
      50     1  1.200000E-02 -2.500000E-01 -3.500000E-01  5.000000E-02 -4.911591E-03  1.473477E-02 -6.385069E-02
      51     1  1.200000E-02 -2.000000E-01 -3.500000E-01  1.000000E-01 -4.911591E-03  2.455796E-02 -6.385069E-02
      52     1  1.200000E-02 -1.500000E-01 -3.500000E-01  1.500000E-01 -4.911591E-03  3.438114E-02 -6.385069E-02
      53     1  1.200000E-02 -1.000000E-01 -3.500000E-01  2.000000E-01 -4.911591E-03  4.420432E-02 -6.385069E-02
      54     1  1.200000E-02 -5.000000E-02 -3.500000E-01  2.500000E-01 -4.911591E-03  5.402750E-02 -6.385069E-02
      55     1  6.000000E-03 -5.000000E-02  3.000000E-01  0.000000E+00  3.438114E-02 -3.438114E-02  2.455796E-02
      56     1  6.000000E-03 -1.000000E-01  3.500000E-01  0.000000E+00  4.420432E-02 -4.420432E-02  2.455796E-02
      57     1  6.000000E-03 -1.500000E-01  4.000000E-01  0.000000E+00  5.402750E-02 -5.402750E-02  2.455796E-02
      58     1  6.000000E-03 -2.000000E-01  4.500000E-01  0.000000E+00  6.385069E-02 -6.385069E-02  2.455796E-02
      59     1  6.000000E-03 -2.500000E-01  5.000000E-01  0.000000E+00  7.367387E-02 -7.367387E-02  2.455796E-02
      60     1  1.200000E-02 -2.000000E-01  5.000000E-01  5.000000E-02  7.367387E-02 -6.385069E-02  2.455796E-02
      61     1  1.200000E-02 -1.500000E-01  5.000000E-01  1.000000E-01  7.367387E-02 -5.402750E-02  2.455796E-02
      62     1  6.000000E-03 -3.000000E-01 -4.500000E-01  0.000000E+00 -1.473477E-02  1.473477E-02 -7.367387E-02
      63     1  1.200000E-02 -2.500000E-01 -4.500000E-01  5.000000E-02 -1.473477E-02  2.455796E-02 -7.367387E-02
      64     1  1.200000E-02 -2.000000E-01 -4.500000E-01  1.000000E-01 -1.473477E-02  3.438114E-02 -7.367387E-02
      65     1  1.200000E-02 -1.500000E-01 -4.500000E-01  1.500000E-01 -1.473477E-02  4.420432E-02 -7.367387E-02
      66     1  1.200000E-02 -1.000000E-01 -4.500000E-01  2.000000E-01 -1.473477E-02  5.402750E-02 -7.367387E-02
      67     1  1.200000E-02 -5.000000E-02 -4.500000E-01  2.500000E-01 -1.473477E-02  6.385069E-02 -7.367387E-02
      68     1  6.000000E-03 -3.500000E-01 -4.000000E-01  0.000000E+00 -4.911591E-03  4.911591E-03 -7.367387E-02
      69     1  1.200000E-02 -3.000000E-01 -4.000000E-01  5.000000E-02 -4.911591E-03  1.473477E-02 -7.367387E-02
      70     1  1.200000E-02 -2.500000E-01 -4.000000E-01  1.000000E-01 -4.911591E-03  2.455796E-02 -7.367387E-02
      71     1  1.200000E-02 -2.000000E-01 -4.000000E-01  1.500000E-01 -4.911591E-03  3.438114E-02 -7.367387E-02
      72     1  1.200000E-02 -1.500000E-01 -4.000000E-01  2.000000E-01 -4.911591E-03  4.420432E-02 -7.367387E-02
      73     1  1.200000E-02 -1.000000E-01 -4.000000E-01  2.500000E-01 -4.911591E-03  5.402750E-02 -7.367387E-02
      74     1  1.200000E-02 -5.000000E-02 -4.000000E-01  3.000000E-01 -4.911591E-03  6.385069E-02 -7.367387E-02
      75     1  6.000000E-03 -5.000000E-02  2.000000E-01  0.000000E+00  2.455796E-02 -2.455796E-02  1.473477E-02
      76     1  6.000000E-03 -1.000000E-01  2.500000E-01  0.000000E+00  3.438114E-02 -3.438114E-02  1.473477E-02
      77     1  6.000000E-03 -1.500000E-01  3.000000E-01  0.000000E+00  4.420432E-02 -4.420432E-02  1.473477E-02
      78     1  6.000000E-03 -2.000000E-01  3.500000E-01  0.000000E+00  5.402750E-02 -5.402750E-02  1.473477E-02
      79     1  6.000000E-03 -2.500000E-01  4.000000E-01  0.000000E+00  6.385069E-02 -6.385069E-02  1.473477E-02
      80     1  6.000000E-03 -3.000000E-01  4.500000E-01  0.000000E+00  7.367387E-02 -7.367387E-02  1.473477E-02
      81     1  6.000000E-03 -3.500000E-01  5.000000E-01  0.000000E+00  8.349705E-02 -8.349705E-02  1.473477E-02
      82     1  1.200000E-02 -3.000000E-01  5.000000E-01  5.000000E-02  8.349705E-02 -7.367387E-02  1.473477E-02
      83     1  1.200000E-02 -2.500000E-01  5.000000E-01  1.000000E-01  8.349705E-02 -6.385069E-02  1.473477E-02
      84     1  1.200000E-02 -2.000000E-01  5.000000E-01  1.500000E-01  8.349705E-02 -5.402750E-02  1.473477E-02
      85     1  6.000000E-03 -4.000000E-01 -4.500000E-01  0.000000E+00 -4.911591E-03  4.911591E-03 -8.349705E-02
      86     1  1.200000E-02 -3.500000E-01 -4.500000E-01  5.000000E-02 -4.911591E-03  1.473477E-02 -8.349705E-02
      87     1  1.200000E-02 -3.000000E-01 -4.500000E-01  1.000000E-01 -4.911591E-03  2.455796E-02 -8.349705E-02
      88     1  1.200000E-02 -2.500000E-01 -4.500000E-01  1.500000E-01 -4.911591E-03  3.438114E-02 -8.349705E-02
      89     1  1.200000E-02 -2.000000E-01 -4.500000E-01  2.000000E-01 -4.911591E-03  4.420432E-02 -8.349705E-02
      90     1  1.200000E-02 -1.500000E-01 -4.500000E-01  2.500000E-01 -4.911591E-03  5.402750E-02 -8.349705E-02
      91     1  1.200000E-02 -1.000000E-01 -4.500000E-01  3.000000E-01 -4.911591E-03  6.385069E-02 -8.349705E-02
      92     1  1.200000E-02 -5.000000E-02 -4.500000E-01  3.500000E-01 -4.911591E-03  7.367387E-02 -8.349705E-02
      93     1  6.000000E-03 -5.000000E-02  1.000000E-01  0.000000E+00  1.473477E-02 -1.473477E-02  4.911591E-03
      94     1  6.000000E-03 -1.000000E-01  1.500000E-01  0.000000E+00  2.455796E-02 -2.455796E-02  4.911591E-03
      95     1  6.000000E-03 -1.500000E-01  2.000000E-01  0.000000E+00  3.438114E-02 -3.438114E-02  4.911591E-03
      96     1  6.000000E-03 -2.000000E-01  2.500000E-01  0.000000E+00  4.420432E-02 -4.420432E-02  4.911591E-03
      97     1  6.000000E-03 -2.500000E-01  3.000000E-01  0.000000E+00  5.402750E-02 -5.402750E-02  4.911591E-03
      98     1  6.000000E-03 -3.000000E-01  3.500000E-01  0.000000E+00  6.385069E-02 -6.385069E-02  4.911591E-03
      99     1  6.000000E-03 -3.500000E-01  4.000000E-01  0.000000E+00  7.367387E-02 -7.367387E-02  4.911591E-03
     100     1  6.000000E-03 -4.000000E-01  4.500000E-01  0.000000E+00  8.349705E-02 -8.349705E-02  4.911591E-03
 
 invars2 : Printing the k point grid from kptrlatt, shifted with shiftk and qptn, in the full Brillouin zone.
   Maximum 100 of them. No use of symmetries
 nkpt_fullbz=    4000
     ikpt      --------------- reduced coordinates ---------------  --------- cartesian coordinates ---------
       1      -5.0000000000E-02 -1.0000000000E-01  0.0000000000E+00 -4.911591E-03  4.911591E-03 -1.473477E-02
       2      -1.0000000000E-01 -5.0000000000E-02  0.0000000000E+00  4.911591E-03 -4.911591E-03 -1.473477E-02
       3      -5.0000000000E-02 -5.0000000000E-02  5.0000000000E-02  4.911591E-03  4.911591E-03 -1.473477E-02
       4      -5.0000000000E-02 -2.0000000000E-01  0.0000000000E+00 -1.473477E-02  1.473477E-02 -2.455796E-02
       5      -1.0000000000E-01 -1.5000000000E-01  0.0000000000E+00 -4.911591E-03  4.911591E-03 -2.455796E-02
       6      -5.0000000000E-02 -1.5000000000E-01  5.0000000000E-02 -4.911591E-03  1.473477E-02 -2.455796E-02
       7      -1.5000000000E-01 -1.0000000000E-01  0.0000000000E+00  4.911591E-03 -4.911591E-03 -2.455796E-02
       8      -1.0000000000E-01 -1.0000000000E-01  5.0000000000E-02  4.911591E-03  4.911591E-03 -2.455796E-02
       9      -5.0000000000E-02 -1.0000000000E-01  1.0000000000E-01  4.911591E-03  1.473477E-02 -2.455796E-02
      10      -2.0000000000E-01 -5.0000000000E-02  0.0000000000E+00  1.473477E-02 -1.473477E-02 -2.455796E-02
      11      -1.5000000000E-01 -5.0000000000E-02  5.0000000000E-02  1.473477E-02 -4.911591E-03 -2.455796E-02
      12      -1.0000000000E-01 -5.0000000000E-02  1.0000000000E-01  1.473477E-02  4.911591E-03 -2.455796E-02
      13      -5.0000000000E-02 -5.0000000000E-02  1.5000000000E-01  1.473477E-02  1.473477E-02 -2.455796E-02
      14      -5.0000000000E-02 -3.0000000000E-01  0.0000000000E+00 -2.455796E-02  2.455796E-02 -3.438114E-02
      15      -1.0000000000E-01 -2.5000000000E-01  0.0000000000E+00 -1.473477E-02  1.473477E-02 -3.438114E-02
      16      -5.0000000000E-02 -2.5000000000E-01  5.0000000000E-02 -1.473477E-02  2.455796E-02 -3.438114E-02
      17      -1.5000000000E-01 -2.0000000000E-01  0.0000000000E+00 -4.911591E-03  4.911591E-03 -3.438114E-02
      18      -1.0000000000E-01 -2.0000000000E-01  5.0000000000E-02 -4.911591E-03  1.473477E-02 -3.438114E-02
      19      -5.0000000000E-02 -2.0000000000E-01  1.0000000000E-01 -4.911591E-03  2.455796E-02 -3.438114E-02
      20      -2.0000000000E-01 -1.5000000000E-01  0.0000000000E+00  4.911591E-03 -4.911591E-03 -3.438114E-02
      21      -1.5000000000E-01 -1.5000000000E-01  5.0000000000E-02  4.911591E-03  4.911591E-03 -3.438114E-02
      22      -1.0000000000E-01 -1.5000000000E-01  1.0000000000E-01  4.911591E-03  1.473477E-02 -3.438114E-02
      23      -5.0000000000E-02 -1.5000000000E-01  1.5000000000E-01  4.911591E-03  2.455796E-02 -3.438114E-02
      24      -2.5000000000E-01 -1.0000000000E-01  0.0000000000E+00  1.473477E-02 -1.473477E-02 -3.438114E-02
      25      -2.0000000000E-01 -1.0000000000E-01  5.0000000000E-02  1.473477E-02 -4.911591E-03 -3.438114E-02
      26      -1.5000000000E-01 -1.0000000000E-01  1.0000000000E-01  1.473477E-02  4.911591E-03 -3.438114E-02
      27      -1.0000000000E-01 -1.0000000000E-01  1.5000000000E-01  1.473477E-02  1.473477E-02 -3.438114E-02
      28      -5.0000000000E-02 -1.0000000000E-01  2.0000000000E-01  1.473477E-02  2.455796E-02 -3.438114E-02
      29      -3.0000000000E-01 -5.0000000000E-02  0.0000000000E+00  2.455796E-02 -2.455796E-02 -3.438114E-02
      30      -2.5000000000E-01 -5.0000000000E-02  5.0000000000E-02  2.455796E-02 -1.473477E-02 -3.438114E-02
      31      -2.0000000000E-01 -5.0000000000E-02  1.0000000000E-01  2.455796E-02 -4.911591E-03 -3.438114E-02
      32      -1.5000000000E-01 -5.0000000000E-02  1.5000000000E-01  2.455796E-02  4.911591E-03 -3.438114E-02
      33      -1.0000000000E-01 -5.0000000000E-02  2.0000000000E-01  2.455796E-02  1.473477E-02 -3.438114E-02
      34      -5.0000000000E-02 -5.0000000000E-02  2.5000000000E-01  2.455796E-02  2.455796E-02 -3.438114E-02
      35      -5.0000000000E-02 -4.0000000000E-01  0.0000000000E+00 -3.438114E-02  3.438114E-02 -4.420432E-02
      36      -1.0000000000E-01 -3.5000000000E-01  0.0000000000E+00 -2.455796E-02  2.455796E-02 -4.420432E-02
      37      -5.0000000000E-02 -3.5000000000E-01  5.0000000000E-02 -2.455796E-02  3.438114E-02 -4.420432E-02
      38      -1.5000000000E-01 -3.0000000000E-01  0.0000000000E+00 -1.473477E-02  1.473477E-02 -4.420432E-02
      39      -1.0000000000E-01 -3.0000000000E-01  5.0000000000E-02 -1.473477E-02  2.455796E-02 -4.420432E-02
      40      -5.0000000000E-02 -3.0000000000E-01  1.0000000000E-01 -1.473477E-02  3.438114E-02 -4.420432E-02
      41      -2.0000000000E-01 -2.5000000000E-01  0.0000000000E+00 -4.911591E-03  4.911591E-03 -4.420432E-02
      42      -1.5000000000E-01 -2.5000000000E-01  5.0000000000E-02 -4.911591E-03  1.473477E-02 -4.420432E-02
      43      -1.0000000000E-01 -2.5000000000E-01  1.0000000000E-01 -4.911591E-03  2.455796E-02 -4.420432E-02
      44      -5.0000000000E-02 -2.5000000000E-01  1.5000000000E-01 -4.911591E-03  3.438114E-02 -4.420432E-02
      45      -2.5000000000E-01 -2.0000000000E-01  0.0000000000E+00  4.911591E-03 -4.911591E-03 -4.420432E-02
      46      -2.0000000000E-01 -2.0000000000E-01  5.0000000000E-02  4.911591E-03  4.911591E-03 -4.420432E-02
      47      -1.5000000000E-01 -2.0000000000E-01  1.0000000000E-01  4.911591E-03  1.473477E-02 -4.420432E-02
      48      -1.0000000000E-01 -2.0000000000E-01  1.5000000000E-01  4.911591E-03  2.455796E-02 -4.420432E-02
      49      -5.0000000000E-02 -2.0000000000E-01  2.0000000000E-01  4.911591E-03  3.438114E-02 -4.420432E-02
      50      -3.0000000000E-01 -1.5000000000E-01  0.0000000000E+00  1.473477E-02 -1.473477E-02 -4.420432E-02
      51      -2.5000000000E-01 -1.5000000000E-01  5.0000000000E-02  1.473477E-02 -4.911591E-03 -4.420432E-02
      52      -2.0000000000E-01 -1.5000000000E-01  1.0000000000E-01  1.473477E-02  4.911591E-03 -4.420432E-02
      53      -1.5000000000E-01 -1.5000000000E-01  1.5000000000E-01  1.473477E-02  1.473477E-02 -4.420432E-02
      54      -1.0000000000E-01 -1.5000000000E-01  2.0000000000E-01  1.473477E-02  2.455796E-02 -4.420432E-02
      55      -5.0000000000E-02 -1.5000000000E-01  2.5000000000E-01  1.473477E-02  3.438114E-02 -4.420432E-02
      56      -3.5000000000E-01 -1.0000000000E-01  0.0000000000E+00  2.455796E-02 -2.455796E-02 -4.420432E-02
      57      -3.0000000000E-01 -1.0000000000E-01  5.0000000000E-02  2.455796E-02 -1.473477E-02 -4.420432E-02
      58      -2.5000000000E-01 -1.0000000000E-01  1.0000000000E-01  2.455796E-02 -4.911591E-03 -4.420432E-02
      59      -2.0000000000E-01 -1.0000000000E-01  1.5000000000E-01  2.455796E-02  4.911591E-03 -4.420432E-02
      60      -1.5000000000E-01 -1.0000000000E-01  2.0000000000E-01  2.455796E-02  1.473477E-02 -4.420432E-02
      61      -1.0000000000E-01 -1.0000000000E-01  2.5000000000E-01  2.455796E-02  2.455796E-02 -4.420432E-02
      62      -5.0000000000E-02 -1.0000000000E-01  3.0000000000E-01  2.455796E-02  3.438114E-02 -4.420432E-02
      63      -4.0000000000E-01 -5.0000000000E-02  0.0000000000E+00  3.438114E-02 -3.438114E-02 -4.420432E-02
      64      -3.5000000000E-01 -5.0000000000E-02  5.0000000000E-02  3.438114E-02 -2.455796E-02 -4.420432E-02
      65      -3.0000000000E-01 -5.0000000000E-02  1.0000000000E-01  3.438114E-02 -1.473477E-02 -4.420432E-02
      66      -2.5000000000E-01 -5.0000000000E-02  1.5000000000E-01  3.438114E-02 -4.911591E-03 -4.420432E-02
      67      -2.0000000000E-01 -5.0000000000E-02  2.0000000000E-01  3.438114E-02  4.911591E-03 -4.420432E-02
      68      -1.5000000000E-01 -5.0000000000E-02  2.5000000000E-01  3.438114E-02  1.473477E-02 -4.420432E-02
      69      -1.0000000000E-01 -5.0000000000E-02  3.0000000000E-01  3.438114E-02  2.455796E-02 -4.420432E-02
      70      -5.0000000000E-02 -5.0000000000E-02  3.5000000000E-01  3.438114E-02  3.438114E-02 -4.420432E-02
      71      -5.0000000000E-02  5.0000000000E-01  0.0000000000E+00  5.402750E-02 -5.402750E-02  4.420432E-02
      72      -1.0000000000E-01 -4.5000000000E-01  0.0000000000E+00 -3.438114E-02  3.438114E-02 -5.402750E-02
      73      -5.0000000000E-02 -4.5000000000E-01  5.0000000000E-02 -3.438114E-02  4.420432E-02 -5.402750E-02
      74      -1.5000000000E-01 -4.0000000000E-01  0.0000000000E+00 -2.455796E-02  2.455796E-02 -5.402750E-02
      75      -1.0000000000E-01 -4.0000000000E-01  5.0000000000E-02 -2.455796E-02  3.438114E-02 -5.402750E-02
      76      -5.0000000000E-02 -4.0000000000E-01  1.0000000000E-01 -2.455796E-02  4.420432E-02 -5.402750E-02
      77      -2.0000000000E-01 -3.5000000000E-01  0.0000000000E+00 -1.473477E-02  1.473477E-02 -5.402750E-02
      78      -1.5000000000E-01 -3.5000000000E-01  5.0000000000E-02 -1.473477E-02  2.455796E-02 -5.402750E-02
      79      -1.0000000000E-01 -3.5000000000E-01  1.0000000000E-01 -1.473477E-02  3.438114E-02 -5.402750E-02
      80      -5.0000000000E-02 -3.5000000000E-01  1.5000000000E-01 -1.473477E-02  4.420432E-02 -5.402750E-02
      81      -2.5000000000E-01 -3.0000000000E-01  0.0000000000E+00 -4.911591E-03  4.911591E-03 -5.402750E-02
      82      -2.0000000000E-01 -3.0000000000E-01  5.0000000000E-02 -4.911591E-03  1.473477E-02 -5.402750E-02
      83      -1.5000000000E-01 -3.0000000000E-01  1.0000000000E-01 -4.911591E-03  2.455796E-02 -5.402750E-02
      84      -1.0000000000E-01 -3.0000000000E-01  1.5000000000E-01 -4.911591E-03  3.438114E-02 -5.402750E-02
      85      -5.0000000000E-02 -3.0000000000E-01  2.0000000000E-01 -4.911591E-03  4.420432E-02 -5.402750E-02
      86      -3.0000000000E-01 -2.5000000000E-01  0.0000000000E+00  4.911591E-03 -4.911591E-03 -5.402750E-02
      87      -2.5000000000E-01 -2.5000000000E-01  5.0000000000E-02  4.911591E-03  4.911591E-03 -5.402750E-02
      88      -2.0000000000E-01 -2.5000000000E-01  1.0000000000E-01  4.911591E-03  1.473477E-02 -5.402750E-02
      89      -1.5000000000E-01 -2.5000000000E-01  1.5000000000E-01  4.911591E-03  2.455796E-02 -5.402750E-02
      90      -1.0000000000E-01 -2.5000000000E-01  2.0000000000E-01  4.911591E-03  3.438114E-02 -5.402750E-02
      91      -5.0000000000E-02 -2.5000000000E-01  2.5000000000E-01  4.911591E-03  4.420432E-02 -5.402750E-02
      92      -3.5000000000E-01 -2.0000000000E-01  0.0000000000E+00  1.473477E-02 -1.473477E-02 -5.402750E-02
      93      -3.0000000000E-01 -2.0000000000E-01  5.0000000000E-02  1.473477E-02 -4.911591E-03 -5.402750E-02
      94      -2.5000000000E-01 -2.0000000000E-01  1.0000000000E-01  1.473477E-02  4.911591E-03 -5.402750E-02
      95      -2.0000000000E-01 -2.0000000000E-01  1.5000000000E-01  1.473477E-02  1.473477E-02 -5.402750E-02
      96      -1.5000000000E-01 -2.0000000000E-01  2.0000000000E-01  1.473477E-02  2.455796E-02 -5.402750E-02
      97      -1.0000000000E-01 -2.0000000000E-01  2.5000000000E-01  1.473477E-02  3.438114E-02 -5.402750E-02
      98      -5.0000000000E-02 -2.0000000000E-01  3.0000000000E-01  1.473477E-02  4.420432E-02 -5.402750E-02
      99      -4.0000000000E-01 -1.5000000000E-01  0.0000000000E+00  2.455796E-02 -2.455796E-02 -5.402750E-02
     100      -3.5000000000E-01 -1.5000000000E-01  5.0000000000E-02  2.455796E-02 -1.473477E-02 -5.402750E-02
 

  chkneu : enter, dtset%nelect=   8.0000000000000000     
  occopt,dtset%nsppol,dtset%nspden=           1           1           1
  maxocc,nocc,occlast=   2.0000000000000000                4   2.0000000000000000     
 chkneu : initialized the occupation numbers for occopt=    1, spin-unpolarized or antiferromagnetic case :
  2.00  2.00  2.00  2.00  0.00
mpi_setup: mkmem  undefined in the input file.Use default mkmem  = nkpt
 mpi_setup: With nkpt_me=110 and mkmem  = 110, ground state wf handled in core.
mpi_setup: mkqmem undefined in the input file.Use default mkqmem = nkpt
 mpi_setup: With nkpt_me=110 and mkqmem = 110, ground state wf handled in core.
mpi_setup: mk1mem undefined in the input file.Use default mk1mem = nkpt
 mpi_setup: With nkpt_me=110 and mk1mem = 110, ground state wf handled in core.
 For input ecut=  5.512500E+01 best grid ngfft=      50      50      50
       max ecut=  5.957054E+01

 ==== FFT mesh ====
  FFT mesh divisions ........................    50   50   50
  Augmented FFT divisions ...................    51   51   50
  FFT algorithm .............................   112
  FFT cache size ............................    16
 getmpw: optimal value of mpw= 5173

 DATASET    1 : space group Fd -3 m (#227); Bravais cF (face-center cubic)

 getdim_nloc : deduce lmnmax  =   4, lnmax  =   2,
                      lmnmaxso=   4, lnmaxso=   2.
memory : analysis of memory needs
================================================================================
 Values of the parameters that define the memory need for DATASET  1.
     intxc =       0    ionmov =       3      iscf =       7    lmnmax =       2
     lnmax =       2     mgfft =      50  mpssoang =       3    mqgrid =    3001
     natom =       2  nloc_mem =       1    nspden =       1   nspinor =       1
    nsppol =       1      nsym =      48    n1xccc =    2501    ntypat =       1
    occopt =       1   xclevel =       1
-    mband =           5        mffmem =           1         mkmem =         110
       mpw =        5173          nfft =      125000          nkpt =         110
================================================================================
P This job should need less than                      86.641 Mbytes of memory.
  Rough estimation (10% accuracy) of disk space for files :
_ WF disk file :     43.416 Mbytes ; DEN or POT disk file :      0.956 Mbytes.
================================================================================

 Biggest array : cg(disk), with     43.4155 MBytes.
 memana : allocated an array of     43.416 Mbytes, for testing purposes.
 memana: allocated      86.641Mbytes, for testing purposes. 
 The job will continue.
--------------------------------------------------------------------------------
------------- Echo of variables that govern the present computation ------------
--------------------------------------------------------------------------------
-
- outvars: echo of selected default values                                      
-   iomode0 =  0 , fftalg0 =112 , wfoptalg0 =  0
-
- outvars: echo of global parameters not present in the input file              
-  max_nthreads =    0
-
 -outvars: echo values of preprocessed input variables --------
            acell      1.0180000000E+01  1.0180000000E+01  1.0180000000E+01 Bohr
              amu      2.80855000E+01
           diemac      1.20000000E+01
          dilatmx      1.05000000E+00
             ecut      5.00000000E+01 Hartree
           ecutsm      5.00000000E-01 Hartree
-          fftalg         112
           getwfk          -1
           ionmov           3
           jdtset        1
              kpt     -5.00000000E-02 -1.00000000E-01  0.00000000E+00
                      -5.00000000E-02 -2.00000000E-01  0.00000000E+00
                      -1.00000000E-01 -1.50000000E-01  0.00000000E+00
                      -5.00000000E-02 -1.50000000E-01  5.00000000E-02
                      -5.00000000E-02 -3.00000000E-01  0.00000000E+00
                      -1.00000000E-01 -2.50000000E-01  0.00000000E+00
                      -5.00000000E-02 -2.50000000E-01  5.00000000E-02
                      -1.50000000E-01 -2.00000000E-01  0.00000000E+00
                      -1.00000000E-01 -2.00000000E-01  5.00000000E-02
                      -5.00000000E-02 -2.00000000E-01  1.00000000E-01
                      -5.00000000E-02 -4.00000000E-01  0.00000000E+00
                      -1.00000000E-01 -3.50000000E-01  0.00000000E+00
                      -5.00000000E-02 -3.50000000E-01  5.00000000E-02
                      -1.50000000E-01 -3.00000000E-01  0.00000000E+00
                      -1.00000000E-01 -3.00000000E-01  5.00000000E-02
                      -5.00000000E-02 -3.00000000E-01  1.00000000E-01
                      -2.00000000E-01 -2.50000000E-01  0.00000000E+00
                      -1.50000000E-01 -2.50000000E-01  5.00000000E-02
                      -1.00000000E-01 -2.50000000E-01  1.00000000E-01
                      -5.00000000E-02 -2.50000000E-01  1.50000000E-01
                      -5.00000000E-02  5.00000000E-01  0.00000000E+00
                      -1.00000000E-01 -4.50000000E-01  0.00000000E+00
                      -5.00000000E-02 -4.50000000E-01  5.00000000E-02
                      -1.50000000E-01 -4.00000000E-01  0.00000000E+00
                      -1.00000000E-01 -4.00000000E-01  5.00000000E-02
                      -5.00000000E-02 -4.00000000E-01  1.00000000E-01
                      -2.00000000E-01 -3.50000000E-01  0.00000000E+00
                      -1.50000000E-01 -3.50000000E-01  5.00000000E-02
                      -1.00000000E-01 -3.50000000E-01  1.00000000E-01
                      -5.00000000E-02 -3.50000000E-01  1.50000000E-01
                      -2.50000000E-01 -3.00000000E-01  0.00000000E+00
                      -2.00000000E-01 -3.00000000E-01  5.00000000E-02
                      -1.50000000E-01 -3.00000000E-01  1.00000000E-01
                      -1.00000000E-01 -3.00000000E-01  1.50000000E-01
                      -5.00000000E-02 -3.00000000E-01  2.00000000E-01
                      -5.00000000E-02  4.00000000E-01  0.00000000E+00
                      -1.00000000E-01  4.50000000E-01  0.00000000E+00
                      -1.50000000E-01  5.00000000E-01  0.00000000E+00
                      -1.00000000E-01  5.00000000E-01  5.00000000E-02
                      -2.00000000E-01 -4.50000000E-01  0.00000000E+00
                      -1.50000000E-01 -4.50000000E-01  5.00000000E-02
                      -1.00000000E-01 -4.50000000E-01  1.00000000E-01
                      -5.00000000E-02 -4.50000000E-01  1.50000000E-01
                      -2.50000000E-01 -4.00000000E-01  0.00000000E+00
                      -2.00000000E-01 -4.00000000E-01  5.00000000E-02
                      -1.50000000E-01 -4.00000000E-01  1.00000000E-01
                      -1.00000000E-01 -4.00000000E-01  1.50000000E-01
                      -5.00000000E-02 -4.00000000E-01  2.00000000E-01
                      -3.00000000E-01 -3.50000000E-01  0.00000000E+00
                      -2.50000000E-01 -3.50000000E-01  5.00000000E-02
                       outvar_i_n : Printing only first  50 k-points.
         kptrlatt       10  -10   10    -10   10   10    -10  -10   10
          kptrlen      1.01800000E+02
P           mkmem         110
            natom           2
            nband           5
           ndtset           1
            ngfft          50      50      50
             nkpt         110
            nstep          10
             nsym          48
            ntime          10
           ntypat           1
              occ      2.000000  2.000000  2.000000  2.000000  0.000000
          optcell           1
            rprim      0.0000000000E+00  5.0000000000E-01  5.0000000000E-01
                       5.0000000000E-01  0.0000000000E+00  5.0000000000E-01
                       5.0000000000E-01  5.0000000000E-01  0.0000000000E+00
           shiftk      5.00000000E-01  5.00000000E-01  5.00000000E-01
          spgroup         227
           symrel      1  0  0   0  1  0   0  0  1      -1  0  0   0 -1  0   0  0 -1
                       0 -1  1   0 -1  0   1 -1  0       0  1 -1   0  1  0  -1  1  0
                      -1  0  0  -1  0  1  -1  1  0       1  0  0   1  0 -1   1 -1  0
                       0  1 -1   1  0 -1   0  0 -1       0 -1  1  -1  0  1   0  0  1
                      -1  0  0  -1  1  0  -1  0  1       1  0  0   1 -1  0   1  0 -1
                       0 -1  1   1 -1  0   0 -1  0       0  1 -1  -1  1  0   0  1  0
                       1  0  0   0  0  1   0  1  0      -1  0  0   0  0 -1   0 -1  0
                       0  1 -1   0  0 -1   1  0 -1       0 -1  1   0  0  1  -1  0  1
                      -1  0  1  -1  1  0  -1  0  0       1  0 -1   1 -1  0   1  0  0
                       0 -1  0   1 -1  0   0 -1  1       0  1  0  -1  1  0   0  1 -1
                       1  0 -1   0  0 -1   0  1 -1      -1  0  1   0  0  1   0 -1  1
                       0  1  0   0  0  1   1  0  0       0 -1  0   0  0 -1  -1  0  0
                       1  0 -1   0  1 -1   0  0 -1      -1  0  1   0 -1  1   0  0  1
                       0 -1  0   0 -1  1   1 -1  0       0  1  0   0  1 -1  -1  1  0
                      -1  0  1  -1  0  0  -1  1  0       1  0 -1   1  0  0   1 -1  0
                       0  1  0   1  0  0   0  0  1       0 -1  0  -1  0  0   0  0 -1
                       0  0 -1   0  1 -1   1  0 -1       0  0  1   0 -1  1  -1  0  1
                       1 -1  0   0 -1  1   0 -1  0      -1  1  0   0  1 -1   0  1  0
                       0  0  1   1  0  0   0  1  0       0  0 -1  -1  0  0   0 -1  0
                      -1  1  0  -1  0  0  -1  0  1       1 -1  0   1  0  0   1  0 -1
                       0  0  1   0  1  0   1  0  0       0  0 -1   0 -1  0  -1  0  0
                       1 -1  0   0 -1  0   0 -1  1      -1  1  0   0  1  0   0  1 -1
                       0  0 -1   1  0 -1   0  1 -1       0  0  1  -1  0  1   0 -1  1
                      -1  1  0  -1  0  1  -1  0  0       1 -1  0   1  0 -1   1  0  0
            tnons      0.0000000  0.0000000  0.0000000     0.2500000  0.2500000  0.2500000
                       0.0000000  0.0000000  0.0000000     0.2500000  0.2500000  0.2500000
                       0.0000000  0.0000000  0.0000000     0.2500000  0.2500000  0.2500000
                       0.0000000  0.0000000  0.0000000     0.2500000  0.2500000  0.2500000
                       0.0000000  0.0000000  0.0000000     0.2500000  0.2500000  0.2500000
                       0.0000000  0.0000000  0.0000000     0.2500000  0.2500000  0.2500000
                       0.0000000  0.0000000  0.0000000     0.2500000  0.2500000  0.2500000
                       0.0000000  0.0000000  0.0000000     0.2500000  0.2500000  0.2500000
                       0.0000000  0.0000000  0.0000000     0.2500000  0.2500000  0.2500000
                       0.0000000  0.0000000  0.0000000     0.2500000  0.2500000  0.2500000
                       0.0000000  0.0000000  0.0000000     0.2500000  0.2500000  0.2500000
                       0.0000000  0.0000000  0.0000000     0.2500000  0.2500000  0.2500000
                       0.0000000  0.0000000  0.0000000     0.2500000  0.2500000  0.2500000
                       0.0000000  0.0000000  0.0000000     0.2500000  0.2500000  0.2500000
                       0.0000000  0.0000000  0.0000000     0.2500000  0.2500000  0.2500000
                       0.0000000  0.0000000  0.0000000     0.2500000  0.2500000  0.2500000
                       0.0000000  0.0000000  0.0000000     0.2500000  0.2500000  0.2500000
                       0.0000000  0.0000000  0.0000000     0.2500000  0.2500000  0.2500000
                       0.0000000  0.0000000  0.0000000     0.2500000  0.2500000  0.2500000
                       0.0000000  0.0000000  0.0000000     0.2500000  0.2500000  0.2500000
                       0.0000000  0.0000000  0.0000000     0.2500000  0.2500000  0.2500000
                       0.0000000  0.0000000  0.0000000     0.2500000  0.2500000  0.2500000
                       0.0000000  0.0000000  0.0000000     0.2500000  0.2500000  0.2500000
                       0.0000000  0.0000000  0.0000000     0.2500000  0.2500000  0.2500000
           toldfe      1.00000000E-06 Hartree
            typat      1  1
              wtk        0.00600    0.00600    0.00600    0.01200    0.00600    0.00600
                         0.01200    0.00600    0.01200    0.01200    0.00600    0.00600
                         0.01200    0.00600    0.01200    0.01200    0.00600    0.01200
                         0.01200    0.01200    0.00600    0.00600    0.01200    0.00600
                         0.01200    0.01200    0.00600    0.01200    0.01200    0.01200
                         0.00600    0.01200    0.01200    0.01200    0.01200    0.00600
                         0.00600    0.00600    0.01200    0.00600    0.01200    0.01200
                         0.01200    0.00600    0.01200    0.01200    0.01200    0.01200
                         0.00600    0.01200
                       outvars : Printing only first  50 k-points.
           xangst      0.0000000000E+00  0.0000000000E+00  0.0000000000E+00
                       1.3467559959E+00  1.3467559959E+00  1.3467559959E+00
            xcart      0.0000000000E+00  0.0000000000E+00  0.0000000000E+00
                       2.5450000000E+00  2.5450000000E+00  2.5450000000E+00
             xred      0.0000000000E+00  0.0000000000E+00  0.0000000000E+00
                       2.5000000000E-01  2.5000000000E-01  2.5000000000E-01
            znucl       14.00000

================================================================================

 chkinp: Checking input parameters for consistency, jdtset=   1.
 DATA TYPE INFORMATION: 
 REAL:      Data type name: REAL(DP) 
            Kind value:      8
            Precision:      15
            Smallest nonnegligible quantity relative to 1:  0.22204460E-15
            Smallest positive number:                       0.22250739-307
            Largest representable number:                   0.17976931+309
 INTEGER:   Data type name: INTEGER(default) 
            Kind value: 4
            Bit size:   32
            Largest representable number: 2147483647
 LOGICAL:   Data type name: LOGICAL 
            Kind value: 4
 CHARACTER: Data type name: CHARACTER             Kind value: 1

  ==== OpenMP parallelism is OFF ====
 
  ==== Using MPI-1 specifications ==== 
  MPI-IO support is ON
  xmpi_tag_ub ................    536870911
  xmpi_bsize_ch ..............            1
  xmpi_bsize_int .............            4
  xmpi_bsize_sp ..............            4
  xmpi_bsize_dp ..............            8
  xmpi_bsize_spc .............            8
  xmpi_bsize_dpc .............           16
  xmpio_bsize_frm ............            4
  xmpi_address_kind ..........            8
  xmpi_offset_kind ...........            8
  MPI_WTICK ..................    9.9999999999999995E-007

================================================================================
== DATASET  1 ==================================================================
-   nproc =    1


 getdim_nloc : deduce lmnmax  =   4, lnmax  =   2,
                      lmnmaxso=   4, lnmaxso=   2.
 Exchange-correlation functional for the present dataset will be:
  LDA: new Teter (4/93) with spin-polarized option - ixc=1
 Citation for XC functional:
  S. Goedecker, M. Teter, J. Huetter, PRB 54, 1703 (1996)

 Unit cell volume ucvol=  2.6374446E+02 bohr^3
 Angles (23,13,12)=  6.00000000E+01  6.00000000E+01  6.00000000E+01 degrees

 getcut: wavevector=  0.0000  0.0000  0.0000  ngfft=  50  50  50
         ecut(hartree)=     55.125   => boxcut(ratio)=   2.07908
- pspini: atom type   1  psp file is 14si.txt
- pspatm: opening atomic psp file    14si.txt
-  Troullier-Martins psp for element  Si        Thu Oct 27 17:31:21 EDT 1994
- 14.00000   4.00000    940714                znucl, zion, pspdat
    1    1    2    2      2001   0.00000      pspcod,pspxc,lmax,lloc,mmax,r2well
    0   5.907  14.692    1   2.0872718        l,e99.0,e99.9,nproj,rcpsp
   0.00000000   0.00000000   0.00000000   0.00000000     rms, ekb1, ekb2, epsatm
    1   2.617   4.181    1   2.0872718        l,e99.0,e99.9,nproj,rcpsp
   0.00000000   0.00000000   0.00000000   0.00000000     rms, ekb1, ekb2, epsatm
    2   0.000   0.000    0   2.0872718        l,e99.0,e99.9,nproj,rcpsp
   0.00000000   0.00000000   0.00000000   0.00000000     rms, ekb1, ekb2, epsatm
    1.80626423934776    0.22824404341771    1.17378968127746   rchrg,fchrg,qchrg
 pspatm: epsatm=    1.43386982
         --- l  ekb(1:nproj) -->
             0    3.287949
             1    1.849886
 pspatm: atomic psp has been read  and splines computed

   2.29419171E+01                                ecore*ucvol(ha*bohr**3)
 ==== Info on pseudopotentials ====
  Norm-conserving pseudopotentials
  Number of pseudopotentials ..    1
  Number of types of atoms   ..    1
  Scalar calculation (no spin-orbit term)
  Nonlocal part applied using Legendre polynomials
  Highest angular momentum +1 .......   3
  Max number of (l,n)   components ..   2
  Max number of (l,m,n) components ..   2

 Pseudo-Core Charge Info: 
   Number of radial points for pseudo-core charge .. 2501
   XC core-correction treatment (optnlxccc) ........    1
   Radius for pseudo-core charge for each type ..... 

  - Atom type    1 has pseudo-core radius ..  5.4188

 Info on the Q-grid used for form factors in spline form: 
   Number of q-points for radial functions ffspl ..   3001
   Number of q-points for vlspl ...................   3001
   vloc is computed in Reciprocal Space
   model core charge treated in real-space

  XC functional for type 1 is 1
  Pseudo valence available: no

 wfconv:     5 bands initialized randomly with npw=  5100, for ikpt=     1
 wfconv:     5 bands initialized randomly with npw=  5128, for ikpt=     2
 wfconv:     5 bands initialized randomly with npw=  5111, for ikpt=     3
 wfconv:     5 bands initialized randomly with npw=  5118, for ikpt=     4
 wfconv:     5 bands initialized randomly with npw=  5151, for ikpt=     5
 wfconv:     5 bands initialized randomly with npw=  5155, for ikpt=     6
 wfconv:     5 bands initialized randomly with npw=  5158, for ikpt=     7
 wfconv:     5 bands initialized randomly with npw=  5130, for ikpt=     8
 wfconv:     5 bands initialized randomly with npw=  5149, for ikpt=     9
 wfconv:     5 bands initialized randomly with npw=  5152, for ikpt=    10
 wfconv:     5 bands initialized randomly with npw=  5153, for ikpt=    11
 wfconv:     5 bands initialized randomly with npw=  5150, for ikpt=    12
 wfconv:     5 bands initialized randomly with npw=  5157, for ikpt=    13
 wfconv:     5 bands initialized randomly with npw=  5152, for ikpt=    14
 wfconv:     5 bands initialized randomly with npw=  5157, for ikpt=    15
 wfconv:     5 bands initialized randomly with npw=  5153, for ikpt=    16
 wfconv:     5 bands initialized randomly with npw=  5139, for ikpt=    17
 wfconv:     5 bands initialized randomly with npw=  5146, for ikpt=    18
 wfconv:     5 bands initialized randomly with npw=  5154, for ikpt=    19
 wfconv:     5 bands initialized randomly with npw=  5148, for ikpt=    20
 wfconv:     5 bands initialized randomly with npw=  5163, for ikpt=    21
 wfconv:     5 bands initialized randomly with npw=  5160, for ikpt=    22
 wfconv:     5 bands initialized randomly with npw=  5153, for ikpt=    23
 wfconv:     5 bands initialized randomly with npw=  5153, for ikpt=    24
 wfconv:     5 bands initialized randomly with npw=  5158, for ikpt=    25
 wfconv:     5 bands initialized randomly with npw=  5151, for ikpt=    26
 wfconv:     5 bands initialized randomly with npw=  5153, for ikpt=    27
 wfconv:     5 bands initialized randomly with npw=  5153, for ikpt=    28
 wfconv:     5 bands initialized randomly with npw=  5159, for ikpt=    29
 wfconv:     5 bands initialized randomly with npw=  5157, for ikpt=    30
 wfconv:     5 bands initialized randomly with npw=  5128, for ikpt=    31
 wfconv:     5 bands initialized randomly with npw=  5144, for ikpt=    32
 wfconv:     5 bands initialized randomly with npw=  5152, for ikpt=    33
 wfconv:     5 bands initialized randomly with npw=  5155, for ikpt=    34
 wfconv:     5 bands initialized randomly with npw=  5168, for ikpt=    35
 wfconv:     5 bands initialized randomly with npw=  5156, for ikpt=    36
 wfconv:     5 bands initialized randomly with npw=  5159, for ikpt=    37
 wfconv:     5 bands initialized randomly with npw=  5159, for ikpt=    38
 wfconv:     5 bands initialized randomly with npw=  5158, for ikpt=    39
 wfconv:     5 bands initialized randomly with npw=  5157, for ikpt=    40
 wfconv:     5 bands initialized randomly with npw=  5162, for ikpt=    41
 wfconv:     5 bands initialized randomly with npw=  5167, for ikpt=    42
 wfconv:     5 bands initialized randomly with npw=  5164, for ikpt=    43
 wfconv:     5 bands initialized randomly with npw=  5153, for ikpt=    44
 wfconv:     5 bands initialized randomly with npw=  5154, for ikpt=    45
 wfconv:     5 bands initialized randomly with npw=  5156, for ikpt=    46
 wfconv:     5 bands initialized randomly with npw=  5169, for ikpt=    47
 wfconv:     5 bands initialized randomly with npw=  5160, for ikpt=    48
 wfconv:     5 bands initialized randomly with npw=  5151, for ikpt=    49
 wfconv:     5 bands initialized randomly with npw=  5149, for ikpt=    50
_setup2: Arith. and geom. avg. npw (full set) are    5156.050    5156.036
 initro: for itypat=  1, take decay length=      1.1000,
 initro: indeed, coreel=     10.0000, nval=  4 and densty=  0.0000E+00.

================================================================================

=== [ionmov= 3] Broyden-Fletcher-Goldfard-Shanno method (forces,Tot energy) 
================================================================================

--- Iteration: ( 1/10) Internal Cycle: (1/1)
--------------------------------------------------------------------------------

 Cartesian coordinates (xcart) [bohr]
  0.00000000000000E+00  0.00000000000000E+00  0.00000000000000E+00
  2.54500000000000E+00  2.54500000000000E+00  2.54500000000000E+00
 Reduced coordinates (xred)
  0.00000000000000E+00  0.00000000000000E+00  0.00000000000000E+00
  2.50000000000000E-01  2.50000000000000E-01  2.50000000000000E-01
 Scale of Primitive Cell (acell) [bohr]
  1.01800000000000E+01  1.01800000000000E+01  1.01800000000000E+01
 Real space primitive translations (rprimd) [bohr]
  0.00000000000000E+00  5.09000000000000E+00  5.09000000000000E+00
  5.09000000000000E+00  0.00000000000000E+00  5.09000000000000E+00
  5.09000000000000E+00  5.09000000000000E+00  0.00000000000000E+00
 Unitary Cell Volume (ucvol) [Bohr^3]=  2.63744458000000E+02
 Angles (23,13,12)= [degrees]
  6.00000000000000E+01  6.00000000000000E+01  6.00000000000000E+01
 Lengths [Bohr]
  7.19834703247905E+00  7.19834703247905E+00  7.19834703247905E+00

---SELF-CONSISTENT-FIELD CONVERGENCE--------------------------------------------

 getcut: wavevector=  0.0000  0.0000  0.0000  ngfft=  50  50  50
         ecut(hartree)=     50.000   => boxcut(ratio)=   2.18304

 ITER STEP NUMBER     1
 vtorho : nnsclo_now=2, note that nnsclo,dbl_nnsclo,istep=0 0 1
 Total charge density [el/Bohr^3]
      Maximum=    9.3634E-02  at reduced coord.    0.1000    0.1000    0.7000
      Minimum=    2.9083E-03  at reduced coord.    0.5000    0.5000    0.5000
   Integrated=    8.0000E+00
 ETOT  1  -8.8666587408895    -8.867E+00 4.701E-02 9.465E+01
 scprqt: <Vxc>= -3.5315848E-01 hartree

Simple mixing update:
  residual square of the potential :   40.747170742340934
 scfcv: previous iteration took 27 [s]

 ITER STEP NUMBER     2
 vtorho : nnsclo_now=2, note that nnsclo,dbl_nnsclo,istep=0 0 2
 Total charge density [el/Bohr^3]
      Maximum=    8.7216E-02  at reduced coord.    0.1000    0.1000    0.7000
      Minimum=    3.4740E-03  at reduced coord.    0.5000    0.5000    0.5000
   Integrated=    8.0000E+00
 ETOT  2  -8.8770447496740    -1.039E-02 4.970E-03 2.415E+00
 scprqt: <Vxc>= -3.5562224E-01 hartree

 Pulay update with  1 previous iterations:
 mixing of old trial potential : alpha(m:m-4)=   1.15     -0.150
 scfcv: previous iteration took 27 [s]

 ITER STEP NUMBER     3
 vtorho : nnsclo_now=1, note that nnsclo,dbl_nnsclo,istep=0 0 3
 Total charge density [el/Bohr^3]
      Maximum=    8.6687E-02  at reduced coord.    0.1000    0.1000    0.7000
      Minimum=    3.5960E-03  at reduced coord.    0.5000    0.5000    0.5000
   Integrated=    8.0000E+00
 ETOT  3  -8.8771194869782    -7.474E-05 2.809E-04 4.825E-02
 scprqt: <Vxc>= -3.5594319E-01 hartree

 Pulay update with  2 previous iterations:
 mixing of old trial potential : alpha(m:m-4)=   1.23     -0.243      0.164E-01
 scfcv: previous iteration took 13 [s]

 ITER STEP NUMBER     4
 vtorho : nnsclo_now=1, note that nnsclo,dbl_nnsclo,istep=0 0 4
 Total charge density [el/Bohr^3]
      Maximum=    8.6677E-02  at reduced coord.    0.1000    0.1000    0.7000
      Minimum=    3.6160E-03  at reduced coord.    0.5000    0.5000    0.5000
   Integrated=    8.0000E+00
 ETOT  4  -8.8771204471199    -9.601E-07 3.232E-05 1.955E-04
 scprqt: <Vxc>= -3.5598012E-01 hartree

 Pulay update with  3 previous iterations:
 mixing of old trial potential : alpha(m:m-4)=   1.17     -0.206      0.366E-01 -0.288E-02
 scfcv: previous iteration took 13 [s]

 ITER STEP NUMBER     5
 vtorho : nnsclo_now=1, note that nnsclo,dbl_nnsclo,istep=0 0 5
 Total charge density [el/Bohr^3]
      Maximum=    8.6674E-02  at reduced coord.    0.1000    0.1000    0.7000
      Minimum=    3.6172E-03  at reduced coord.    0.5000    0.5000    0.5000
   Integrated=    8.0000E+00
 ETOT  5  -8.8771204527385    -5.619E-09 1.010E-04 2.836E-07
 scprqt: <Vxc>= -3.5598307E-01 hartree

 At SCF step    5, etot is converged : 
  for the second time, diff in etot=  5.619E-09 < toldfe=  1.000E-06

 Cartesian components of stress tensor (hartree/bohr^3)
  sigma(1 1)= -2.01230264E-05  sigma(3 2)=  0.00000000E+00
  sigma(2 2)= -2.01230264E-05  sigma(3 1)=  0.00000000E+00
  sigma(3 3)= -2.01230264E-05  sigma(2 1)=  0.00000000E+00

fftdatar_write: about to write data to: Si_o_DS1_TIM1_DEN with iomode IO_MODE_FORTRAN
 IO operation completed. cpu_time:       0.0 [s], walltime:       0.0 [s]

---OUTPUT-----------------------------------------------------------------------

 Cartesian coordinates (xcart) [bohr]
  0.00000000000000E+00  0.00000000000000E+00  0.00000000000000E+00
  2.54500000000000E+00  2.54500000000000E+00  2.54500000000000E+00
 Reduced coordinates (xred)
  0.00000000000000E+00  0.00000000000000E+00  0.00000000000000E+00
  2.50000000000000E-01  2.50000000000000E-01  2.50000000000000E-01
 Cartesian forces (fcart) [Ha/bohr]; max,rms= 1.16237E-31 9.75077E-32 (free atoms)
  1.16236872085611E-31 -1.16236872085611E-31  3.87456240285369E-32
 -1.16236872085611E-31  1.16236872085611E-31 -3.87456240285370E-32
 Reduced forces (fred)
 -1.57772181044202E-30 -1.57772181044202E-30  1.57772181044202E-30
 -2.36658271566304E-30  0.00000000000000E+00  1.57772181044202E-30
 Scale of Primitive Cell (acell) [bohr]
  1.01800000000000E+01  1.01800000000000E+01  1.01800000000000E+01
 Real space primitive translations (rprimd) [bohr]
  0.00000000000000E+00  5.09000000000000E+00  5.09000000000000E+00
  5.09000000000000E+00  0.00000000000000E+00  5.09000000000000E+00
  5.09000000000000E+00  5.09000000000000E+00  0.00000000000000E+00
 Unitary Cell Volume (ucvol) [Bohr^3]=  2.63744458000000E+02
 Angles (23,13,12)= [degrees]
  6.00000000000000E+01  6.00000000000000E+01  6.00000000000000E+01
 Lengths [Bohr]
  7.19834703247905E+00  7.19834703247905E+00  7.19834703247905E+00
 Stress tensor in cartesian coordinates (strten) [Ha/bohr^3]
 -2.01230263710396E-05  0.00000000000000E+00  0.00000000000000E+00
  0.00000000000000E+00 -2.01230263710396E-05  0.00000000000000E+00
  0.00000000000000E+00  0.00000000000000E+00 -2.01230263710396E-05
 Total energy (etotal) [Ha]= -8.87712045273850E+00
 fconv : at Broyd/MD step   1, gradients have not converged yet. 
  max grad (force/stress) = 2.0123E-03 > tolmxf= 5.0000E-05 ha/bohr (free atoms)

 Geometry Optimization Precondition:           0
Inverse hessian has been initialized.
 EXIT:           1           1
 mover: previous time step took 01:37

--- Iteration: ( 2/10) Internal Cycle: (1/1)
--------------------------------------------------------------------------------

 Cartesian coordinates (xcart) [bohr]
  1.16307043214879E-31 -1.16307043214879E-31  3.87690144049596E-32
  2.54653639306343E+00  2.54653639306343E+00  2.54653639306343E+00
 Reduced coordinates (xred)
 -1.90302672045859E-32  2.66423740864203E-32 -3.80605344091718E-33
  2.50000000000000E-01  2.50000000000000E-01  2.50000000000000E-01
 Scale of Primitive Cell (acell) [bohr]
  1.01861455722537E+01  1.01861455722537E+01  1.01861455722537E+01
 Real space primitive translations (rprimd) [bohr]
  0.00000000000000E+00  5.09307278612686E+00  5.09307278612686E+00
  5.09307278612686E+00  0.00000000000000E+00  5.09307278612686E+00
  5.09307278612686E+00  5.09307278612686E+00  0.00000000000000E+00
 Unitary Cell Volume (ucvol) [Bohr^3]=  2.64222406718671E+02
 Angles (23,13,12)= [degrees]
  6.00000000000000E+01  6.00000000000000E+01  6.00000000000000E+01
 Lengths [Bohr]
  7.20269260829393E+00  7.20269260829393E+00  7.20269260829393E+00

---SELF-CONSISTENT-FIELD CONVERGENCE--------------------------------------------

 getcut: wavevector=  0.0000  0.0000  0.0000  ngfft=  50  50  50
         ecut(hartree)=     50.000   => boxcut(ratio)=   2.18172

 ITER STEP NUMBER     1
 vtorho : nnsclo_now=2, note that nnsclo,dbl_nnsclo,istep=0 0 1
 Total charge density [el/Bohr^3]
      Maximum=    8.6495E-02  at reduced coord.    0.1000    0.1000    0.7000
      Minimum=    3.6108E-03  at reduced coord.    0.5000    0.5000    0.5000
   Integrated=    8.0000E+00
 ETOT  1  -8.8771282385284    -8.877E+00 4.067E-05 8.586E-03
 scprqt: <Vxc>= -3.5575978E-01 hartree

Simple mixing update:
  residual square of the potential :   3.2344410587345413E-003
 scfcv: previous iteration took 27 [s]

 ITER STEP NUMBER     2
 vtorho : nnsclo_now=2, note that nnsclo,dbl_nnsclo,istep=0 0 2
 Total charge density [el/Bohr^3]
      Maximum=    8.6540E-02  at reduced coord.    0.1000    0.1000    0.7000
      Minimum=    3.6047E-03  at reduced coord.    0.5000    0.5000    0.5000
   Integrated=    8.0000E+00
 ETOT  2  -8.8771286216596    -3.831E-07 1.448E-05 2.529E-04
 scprqt: <Vxc>= -3.5573662E-01 hartree

 Pulay update with  1 previous iterations:
 mixing of old trial potential : alpha(m:m-4)=   1.18     -0.176
 scfcv: previous iteration took 26 [s]

 ITER STEP NUMBER     3
 vtorho : nnsclo_now=1, note that nnsclo,dbl_nnsclo,istep=0 0 3
 Total charge density [el/Bohr^3]
      Maximum=    8.6544E-02  at reduced coord.    0.1000    0.1000    0.7000
      Minimum=    3.6035E-03  at reduced coord.    0.5000    0.5000    0.5000
   Integrated=    8.0000E+00
 ETOT  3  -8.8771286289645    -7.305E-09 1.576E-06 4.260E-06
 scprqt: <Vxc>= -3.5573322E-01 hartree

 At SCF step    3, etot is converged : 
  for the second time, diff in etot=  7.305E-09 < toldfe=  1.000E-06

 Cartesian components of stress tensor (hartree/bohr^3)
  sigma(1 1)= -1.40612126E-05  sigma(3 2)=  0.00000000E+00
  sigma(2 2)= -1.40612126E-05  sigma(3 1)=  0.00000000E+00
  sigma(3 3)= -1.40612126E-05  sigma(2 1)=  0.00000000E+00

fftdatar_write: about to write data to: Si_o_DS1_TIM2_DEN with iomode IO_MODE_FORTRAN
 IO operation completed. cpu_time:       0.0 [s], walltime:       0.1 [s]

---OUTPUT-----------------------------------------------------------------------

 Cartesian coordinates (xcart) [bohr]
  1.16307043214879E-31 -1.16307043214879E-31  3.87690144049596E-32
  2.54653639306343E+00  2.54653639306343E+00  2.54653639306343E+00
 Reduced coordinates (xred)
 -1.90302672045859E-32  2.66423740864203E-32 -3.80605344091718E-33
  2.50000000000000E-01  2.50000000000000E-01  2.50000000000000E-01
 Cartesian forces (fcart) [Ha/bohr]; max,rms= 0.00000E+00 0.00000E+00 (free atoms)
 -0.00000000000000E+00 -0.00000000000000E+00 -0.00000000000000E+00
 -0.00000000000000E+00 -0.00000000000000E+00 -0.00000000000000E+00
 Reduced forces (fred)
  0.00000000000000E+00  0.00000000000000E+00  0.00000000000000E+00
  0.00000000000000E+00  0.00000000000000E+00  0.00000000000000E+00
 Scale of Primitive Cell (acell) [bohr]
  1.01861455722537E+01  1.01861455722537E+01  1.01861455722537E+01
 Real space primitive translations (rprimd) [bohr]
  0.00000000000000E+00  5.09307278612686E+00  5.09307278612686E+00
  5.09307278612686E+00  0.00000000000000E+00  5.09307278612686E+00
  5.09307278612686E+00  5.09307278612686E+00  0.00000000000000E+00
 Unitary Cell Volume (ucvol) [Bohr^3]=  2.64222406718671E+02
 Angles (23,13,12)= [degrees]
  6.00000000000000E+01  6.00000000000000E+01  6.00000000000000E+01
 Lengths [Bohr]
  7.20269260829393E+00  7.20269260829393E+00  7.20269260829393E+00
 Stress tensor in cartesian coordinates (strten) [Ha/bohr^3]
 -1.40612125838752E-05  0.00000000000000E+00  0.00000000000000E+00
  0.00000000000000E+00 -1.40612125838750E-05  0.00000000000000E+00
  0.00000000000000E+00  0.00000000000000E+00 -1.40612125838749E-05
 Total energy (etotal) [Ha]= -8.87712862896452E+00

 Difference of energy with previous step (new-old):
           Absolute (Ha)=-8.17623E-06
           Relative     =-9.21044E-07
 fconv : at Broyd/MD step   2, gradients have not converged yet. 
  max grad (force/stress) = 1.4061E-03 > tolmxf= 5.0000E-05 ha/bohr (free atoms)

 Geometry Optimization Precondition:           0
   line minimization, algorithm   4
                        lambda      etotal            dedv        d2edv2
   old point         :  0.0000E+00 -8.8771204527E+00 -9.6120E-06  2.8479E-06
   new point         :  1.0000E+00 -8.8771286290E+00 -6.7287E-06  2.9189E-06
   predicted point   :  3.2431E+00 -8.8771362436E+00 -1.1187E-16  3.0812E-06

 EXIT:           1           1
 mover: previous time step took 01:07

--- Iteration: ( 3/10) Internal Cycle: (1/1)
--------------------------------------------------------------------------------

 Cartesian coordinates (xcart) [bohr]
  1.13513210422110E-31 -1.12976622160389E-31  3.80165995612770E-32
  2.54998271546228E+00  2.54998271546228E+00  2.54998271546228E+00
 Reduced coordinates (xred)
 -1.84778931910381E-32  2.59321789261446E-32 -3.67453581864390E-33
  2.50000000000000E-01  2.50000000000000E-01  2.50000000000000E-01
 Scale of Primitive Cell (acell) [bohr]
  1.01999308618491E+01  1.01999308618491E+01  1.01999308618491E+01
 Real space primitive translations (rprimd) [bohr]
  0.00000000000000E+00  5.09996543092457E+00  5.09996543092457E+00
  5.09996543092457E+00  0.00000000000000E+00  5.09996543092457E+00
  5.09996543092457E+00  5.09996543092457E+00  0.00000000000000E+00
 Unitary Cell Volume (ucvol) [Bohr^3]=  2.65296605186656E+02
 Angles (23,13,12)= [degrees]
  6.00000000000000E+01  6.00000000000000E+01  6.00000000000000E+01
 Lengths [Bohr]
  7.21244028004747E+00  7.21244028004747E+00  7.21244028004747E+00

---SELF-CONSISTENT-FIELD CONVERGENCE--------------------------------------------

 getcut: wavevector=  0.0000  0.0000  0.0000  ngfft=  50  50  50
         ecut(hartree)=     50.000   => boxcut(ratio)=   2.17877

 ITER STEP NUMBER     1
 vtorho : nnsclo_now=2, note that nnsclo,dbl_nnsclo,istep=0 0 1
 Total charge density [el/Bohr^3]
      Maximum=    8.6143E-02  at reduced coord.    0.1000    0.1000    0.7000
      Minimum=    3.5891E-03  at reduced coord.    0.5000    0.5000    0.5000
   Integrated=    8.0000E+00
 ETOT  1  -8.8771345676025    -8.877E+00 3.092E-06 4.331E-02
 scprqt: <Vxc>= -3.5523343E-01 hartree

Simple mixing update:
  residual square of the potential :   1.6284004650108846E-002
 scfcv: previous iteration took 27 [s]

 ITER STEP NUMBER     2
 vtorho : nnsclo_now=2, note that nnsclo,dbl_nnsclo,istep=0 0 2
 Total charge density [el/Bohr^3]
      Maximum=    8.6243E-02  at reduced coord.    0.1000    0.1000    0.7000
      Minimum=    3.5755E-03  at reduced coord.    0.5000    0.5000    0.5000
   Integrated=    8.0000E+00
 ETOT  2  -8.8771365026852    -1.935E-06 1.983E-06 1.289E-03
 scprqt: <Vxc>= -3.5518135E-01 hartree

 Pulay update with  1 previous iterations:
 mixing of old trial potential : alpha(m:m-4)=   1.18     -0.177
 scfcv: previous iteration took 27 [s]

 ITER STEP NUMBER     3
 vtorho : nnsclo_now=1, note that nnsclo,dbl_nnsclo,istep=0 0 3
 Total charge density [el/Bohr^3]
      Maximum=    8.6252E-02  at reduced coord.    0.1000    0.1000    0.7000
      Minimum=    3.5726E-03  at reduced coord.    0.5000    0.5000    0.5000
   Integrated=    8.0000E+00
 ETOT  3  -8.8771365400238    -3.734E-08 2.477E-06 2.170E-05
 scprqt: <Vxc>= -3.5517365E-01 hartree

 Pulay update with  2 previous iterations:
 mixing of old trial potential : alpha(m:m-4)=   1.21     -0.228      0.149E-01
 scfcv: previous iteration took 13 [s]

 ITER STEP NUMBER     4
 vtorho : nnsclo_now=1, note that nnsclo,dbl_nnsclo,istep=0 0 4
 Total charge density [el/Bohr^3]
      Maximum=    8.6253E-02  at reduced coord.    0.1000    0.1000    0.7000
      Minimum=    3.5722E-03  at reduced coord.    0.5000    0.5000    0.5000
   Integrated=    8.0000E+00
 ETOT  4  -8.8771365404670    -4.432E-10 1.452E-06 2.451E-08
 scprqt: <Vxc>= -3.5517279E-01 hartree

 At SCF step    4, etot is converged : 
  for the second time, diff in etot=  4.432E-10 < toldfe=  1.000E-06

 Cartesian components of stress tensor (hartree/bohr^3)
  sigma(1 1)= -6.88459049E-07  sigma(3 2)=  0.00000000E+00
  sigma(2 2)= -6.88459049E-07  sigma(3 1)=  0.00000000E+00
  sigma(3 3)= -6.88459049E-07  sigma(2 1)=  0.00000000E+00

fftdatar_write: about to write data to: Si_o_DS1_TIM3_DEN with iomode IO_MODE_FORTRAN
 IO operation completed. cpu_time:       0.0 [s], walltime:       0.0 [s]

---OUTPUT-----------------------------------------------------------------------

 Cartesian coordinates (xcart) [bohr]
  1.13513210422110E-31 -1.12976622160389E-31  3.80165995612770E-32
  2.54998271546228E+00  2.54998271546228E+00  2.54998271546228E+00
 Reduced coordinates (xred)
 -1.84778931910381E-32  2.59321789261446E-32 -3.67453581864390E-33
  2.50000000000000E-01  2.50000000000000E-01  2.50000000000000E-01
 Cartesian forces (fcart) [Ha/bohr]; max,rms= 0.00000E+00 0.00000E+00 (free atoms)
 -0.00000000000000E+00 -0.00000000000000E+00 -0.00000000000000E+00
 -0.00000000000000E+00 -0.00000000000000E+00 -0.00000000000000E+00
 Reduced forces (fred)
  0.00000000000000E+00  0.00000000000000E+00  0.00000000000000E+00
  0.00000000000000E+00  0.00000000000000E+00  0.00000000000000E+00
 Scale of Primitive Cell (acell) [bohr]
  1.01999308618491E+01  1.01999308618491E+01  1.01999308618491E+01
 Real space primitive translations (rprimd) [bohr]
  0.00000000000000E+00  5.09996543092457E+00  5.09996543092457E+00
  5.09996543092457E+00  0.00000000000000E+00  5.09996543092457E+00
  5.09996543092457E+00  5.09996543092457E+00  0.00000000000000E+00
 Unitary Cell Volume (ucvol) [Bohr^3]=  2.65296605186656E+02
 Angles (23,13,12)= [degrees]
  6.00000000000000E+01  6.00000000000000E+01  6.00000000000000E+01
 Lengths [Bohr]
  7.21244028004747E+00  7.21244028004747E+00  7.21244028004747E+00
 Stress tensor in cartesian coordinates (strten) [Ha/bohr^3]
 -6.88459048662788E-07  0.00000000000000E+00  0.00000000000000E+00
  0.00000000000000E+00 -6.88459048662788E-07  0.00000000000000E+00
  0.00000000000000E+00  0.00000000000000E+00 -6.88459048662734E-07
 Total energy (etotal) [Ha]= -8.87713654046703E+00

 Difference of energy with previous step (new-old):
           Absolute (Ha)=-7.91150E-06
           Relative     =-8.91223E-07
 fconv : at Broyd/MD step   3, gradients have not converged yet. 
  max grad (force/stress) = 6.8846E-05 > tolmxf= 5.0000E-05 ha/bohr (free atoms)

 Geometry Optimization Precondition:           0
   line minimization, algorithm   4
                        lambda      etotal            dedv        d2edv2
   old point         :  0.0000E+00 -8.8771286290E+00 -1.5093E-05  1.4388E-05
   new point         :  1.0000E+00 -8.8771365405E+00 -7.4199E-07  1.4315E-05
   predicted point   :  1.0518E+00 -8.8771365597E+00  3.1780E-13  1.4311E-05

 EXIT:           1           1
 mover: previous time step took 01:21

--- Iteration: ( 4/10) Internal Cycle: (1/1)
--------------------------------------------------------------------------------

 Cartesian coordinates (xcart) [bohr]
  1.13368035647730E-31 -1.12803562194948E-31  3.79775030335037E-32
  2.55016137756150E+00  2.55016137756150E+00  2.55016137756150E+00
 Reduced coordinates (xred)
 -1.84492338862421E-32  2.58953318798166E-32 -3.66771196422253E-33
  2.50000000000000E-01  2.50000000000000E-01  2.50000000000000E-01
 Scale of Primitive Cell (acell) [bohr]
  1.02006455102460E+01  1.02006455102460E+01  1.02006455102460E+01
 Real space primitive translations (rprimd) [bohr]
  0.00000000000000E+00  5.10032275512301E+00  5.10032275512301E+00
  5.10032275512301E+00  0.00000000000000E+00  5.10032275512301E+00
  5.10032275512301E+00  5.10032275512301E+00  0.00000000000000E+00
 Unitary Cell Volume (ucvol) [Bohr^3]=  2.65352372352192E+02
 Angles (23,13,12)= [degrees]
  6.00000000000000E+01  6.00000000000000E+01  6.00000000000000E+01
 Lengths [Bohr]
  7.21294561277507E+00  7.21294561277507E+00  7.21294561277507E+00

---SELF-CONSISTENT-FIELD CONVERGENCE--------------------------------------------

 getcut: wavevector=  0.0000  0.0000  0.0000  ngfft=  50  50  50
         ecut(hartree)=     50.000   => boxcut(ratio)=   2.17862

 ITER STEP NUMBER     1
 vtorho : nnsclo_now=2, note that nnsclo,dbl_nnsclo,istep=0 0 1
 Total charge density [el/Bohr^3]
      Maximum=    8.6232E-02  at reduced coord.    0.1000    0.1000    0.7000
      Minimum=    3.5715E-03  at reduced coord.    0.5000    0.5000    0.5000
   Integrated=    8.0000E+00
 ETOT  1  -8.8771365545485    -8.877E+00 1.154E-06 1.162E-04
 scprqt: <Vxc>= -3.5514692E-01 hartree

Simple mixing update:
  residual square of the potential :   4.3695534724802015E-005
 scfcv: previous iteration took 27 [s]

 ITER STEP NUMBER     2
 vtorho : nnsclo_now=2, note that nnsclo,dbl_nnsclo,istep=0 0 2
 Total charge density [el/Bohr^3]
      Maximum=    8.6237E-02  at reduced coord.    0.1000    0.1000    0.7000
      Minimum=    3.5708E-03  at reduced coord.    0.5000    0.5000    0.5000
   Integrated=    8.0000E+00
 ETOT  2  -8.8771365597394    -5.191E-09 9.051E-07 3.468E-06
 scprqt: <Vxc>= -3.5514423E-01 hartree

 Pulay update with  1 previous iterations:
 mixing of old trial potential : alpha(m:m-4)=   1.18     -0.177
 scfcv: previous iteration took 26 [s]

 ITER STEP NUMBER     3
 vtorho : nnsclo_now=1, note that nnsclo,dbl_nnsclo,istep=0 0 3
 Total charge density [el/Bohr^3]
      Maximum=    8.6238E-02  at reduced coord.    0.1000    0.1000    0.7000
      Minimum=    3.5706E-03  at reduced coord.    0.5000    0.5000    0.5000
   Integrated=    8.0000E+00
 ETOT  3  -8.8771365598397    -1.004E-10 1.163E-06 5.820E-08
 scprqt: <Vxc>= -3.5514383E-01 hartree

 At SCF step    3, etot is converged : 
  for the second time, diff in etot=  1.004E-10 < toldfe=  1.000E-06

 Cartesian components of stress tensor (hartree/bohr^3)
  sigma(1 1)= -7.61896893E-10  sigma(3 2)=  0.00000000E+00
  sigma(2 2)= -7.61896893E-10  sigma(3 1)=  0.00000000E+00
  sigma(3 3)= -7.61896893E-10  sigma(2 1)=  0.00000000E+00

fftdatar_write: about to write data to: Si_o_DS1_TIM4_DEN with iomode IO_MODE_FORTRAN
 IO operation completed. cpu_time:       0.0 [s], walltime:       0.0 [s]

---OUTPUT-----------------------------------------------------------------------

 Cartesian coordinates (xcart) [bohr]
  1.13368035647730E-31 -1.12803562194948E-31  3.79775030335037E-32
  2.55016137756150E+00  2.55016137756150E+00  2.55016137756150E+00
 Reduced coordinates (xred)
 -1.84492338862421E-32  2.58953318798166E-32 -3.66771196422253E-33
  2.50000000000000E-01  2.50000000000000E-01  2.50000000000000E-01
 Cartesian forces (fcart) [Ha/bohr]; max,rms= 5.35702E-32 5.35702E-32 (free atoms)
 -5.35701904686905E-32  5.35701904686905E-32 -5.35701904686905E-32
  5.35701904686905E-32 -5.35701904686905E-32  5.35701904686905E-32
 Reduced forces (fred)
  0.00000000000000E+00  1.09290104577494E-30  0.00000000000000E+00
  0.00000000000000E+00  0.00000000000000E+00  0.00000000000000E+00
 Scale of Primitive Cell (acell) [bohr]
  1.02006455102460E+01  1.02006455102460E+01  1.02006455102460E+01
 Real space primitive translations (rprimd) [bohr]
  0.00000000000000E+00  5.10032275512301E+00  5.10032275512301E+00
  5.10032275512301E+00  0.00000000000000E+00  5.10032275512301E+00
  5.10032275512301E+00  5.10032275512301E+00  0.00000000000000E+00
 Unitary Cell Volume (ucvol) [Bohr^3]=  2.65352372352192E+02
 Angles (23,13,12)= [degrees]
  6.00000000000000E+01  6.00000000000000E+01  6.00000000000000E+01
 Lengths [Bohr]
  7.21294561277507E+00  7.21294561277507E+00  7.21294561277507E+00
 Stress tensor in cartesian coordinates (strten) [Ha/bohr^3]
 -7.61896892852252E-10  0.00000000000000E+00  0.00000000000000E+00
  0.00000000000000E+00 -7.61896892743832E-10  0.00000000000000E+00
  0.00000000000000E+00  0.00000000000000E+00 -7.61896892852252E-10
 Total energy (etotal) [Ha]= -8.87713655983975E+00

 Difference of energy with previous step (new-old):
           Absolute (Ha)=-1.93727E-08
           Relative     =-2.18232E-09

 At Broyd/MD step   4, gradients are converged : 
  max grad (force/stress) = 7.6190E-08 < tolmxf= 5.0000E-05 ha/bohr (free atoms)

 Geometry Optimization Precondition:           0
================================================================================

 ----iterations are completed or convergence reached----


 === Gap info ===
  >>>> For spin  1
   Minimum optical gap =   2.6333 [eV], located at k-point      :  -0.0500 -0.1000  0.0000
   Fundamental gap     =   0.6012 [eV], Top of valence bands at :  -0.0500  0.0000  0.0000
                                        Bottom of conduction at :  -0.4000 -0.4500  0.0000
 Mean square residual over all n,k,spin=   2.1334E-09; max=  1.1625E-06
  -0.0500 -0.1000  0.0000    1  3.94141E-13 kpt; spin; max resid(k); each band:
  3.28E-13 6.72E-14 4.14E-14 9.73E-14 3.94E-13
  -0.0500 -0.2000  0.0000    1  2.13248E-12 kpt; spin; max resid(k); each band:
  7.80E-13 5.01E-13 2.71E-14 3.04E-13 2.13E-12
  -0.1000 -0.1500  0.0000    1  9.08618E-13 kpt; spin; max resid(k); each band:
  6.70E-13 6.11E-14 2.67E-14 1.62E-13 9.09E-13
  -0.0500 -0.1500  0.0500    1  1.56549E-12 kpt; spin; max resid(k); each band:
  6.53E-13 1.24E-13 3.55E-13 8.32E-14 1.57E-12
  -0.0500 -0.3000  0.0000    1  1.66269E-12 kpt; spin; max resid(k); each band:
  8.83E-13 9.62E-13 2.06E-14 3.43E-13 1.66E-12
  -0.1000 -0.2500  0.0000    1  1.42531E-12 kpt; spin; max resid(k); each band:
  9.37E-13 3.76E-13 2.01E-14 6.14E-13 1.43E-12
  -0.0500 -0.2500  0.0500    1  2.42344E-12 kpt; spin; max resid(k); each band:
  8.97E-13 7.06E-13 4.55E-13 1.61E-13 2.42E-12
  -0.1500 -0.2000  0.0000    1  1.17332E-12 kpt; spin; max resid(k); each band:
  9.51E-13 5.23E-14 1.81E-14 2.00E-13 1.17E-12
  -0.1000 -0.2000  0.0500    1  1.16653E-12 kpt; spin; max resid(k); each band:
  9.16E-13 1.27E-13 4.68E-13 1.06E-13 1.17E-12
  -0.0500 -0.2000  0.1000    1  1.28439E-11 kpt; spin; max resid(k); each band:
  8.28E-13 1.97E-13 7.18E-13 5.77E-14 1.28E-11
  -0.0500 -0.4000  0.0000    1  1.85466E-12 kpt; spin; max resid(k); each band:
  6.48E-13 1.47E-12 1.58E-14 3.72E-13 1.85E-12
  -0.1000 -0.3500  0.0000    1  2.28746E-12 kpt; spin; max resid(k); each band:
  9.23E-13 8.81E-13 6.96E-13 1.83E-14 2.29E-12
  -0.0500 -0.3500  0.0500    1  1.85783E-12 kpt; spin; max resid(k); each band:
  7.68E-13 1.23E-12 5.17E-13 1.09E-13 1.86E-12
  -0.1500 -0.3000  0.0000    1  1.37156E-12 kpt; spin; max resid(k); each band:
  1.04E-12 3.57E-13 6.79E-13 1.57E-14 1.37E-12
  -0.1000 -0.3000  0.0500    1  1.74509E-12 kpt; spin; max resid(k); each band:
  9.72E-13 5.26E-13 6.66E-13 1.43E-13 1.75E-12
  -0.0500 -0.3000  0.1000    1  1.77183E-12 kpt; spin; max resid(k); each band:
  7.18E-13 9.49E-13 6.38E-13 8.77E-14 1.77E-12
  -0.2000 -0.2500  0.0000    1  1.34312E-12 kpt; spin; max resid(k); each band:
  1.13E-12 3.55E-14 2.18E-13 1.36E-14 1.34E-12
  -0.1500 -0.2500  0.0500    1  1.49383E-12 kpt; spin; max resid(k); each band:
  1.09E-12 1.18E-13 5.73E-13 8.87E-14 1.49E-12
  -0.1000 -0.2500  0.1000    1  1.47830E-12 kpt; spin; max resid(k); each band:
  1.01E-12 1.67E-13 8.97E-13 8.05E-14 1.48E-12
  -0.0500 -0.2500  0.1500    1  1.63040E-12 kpt; spin; max resid(k); each band:
  4.21E-13 5.42E-13 4.43E-13 1.19E-13 1.63E-12
  -0.0500  0.5000  0.0000    1  1.91647E-12 kpt; spin; max resid(k); each band:
  6.82E-14 1.88E-12 3.29E-13 9.55E-15 1.92E-12
  -0.1000 -0.4500  0.0000    1  2.36414E-12 kpt; spin; max resid(k); each band:
  5.37E-13 1.37E-12 6.32E-13 1.69E-14 2.36E-12
  -0.0500 -0.4500  0.0500    1  1.83261E-12 kpt; spin; max resid(k); each band:
  2.39E-13 1.74E-12 5.87E-13 3.63E-14 1.83E-12
  -0.1500 -0.4000  0.0000    1  1.42350E-12 kpt; spin; max resid(k); each band:
  8.63E-13 7.59E-13 6.46E-13 1.59E-14 1.42E-12
  -0.1000 -0.4000  0.0500    1  2.60600E-12 kpt; spin; max resid(k); each band:
  7.23E-13 1.02E-12 7.06E-13 6.31E-14 2.61E-12
  -0.0500 -0.4000  0.1000    1  1.90787E-12 kpt; spin; max resid(k); each band:
  3.29E-13 1.47E-12 6.30E-13 8.24E-14 1.91E-12
  -0.2000 -0.3500  0.0000    1  1.48126E-12 kpt; spin; max resid(k); each band:
  1.09E-12 3.69E-13 6.23E-13 1.29E-14 1.48E-12
  -0.1500 -0.3500  0.0500    1  1.46199E-12 kpt; spin; max resid(k); each band:
  9.71E-13 5.38E-13 7.25E-13 7.80E-14 1.46E-12
  -0.1000 -0.3500  0.1000    1  5.22351E-12 kpt; spin; max resid(k); each band:
  8.32E-13 7.09E-13 9.00E-13 9.93E-14 5.22E-12
  -0.0500 -0.3500  0.1500    1  1.87290E-12 kpt; spin; max resid(k); each band:
  3.21E-13 1.06E-12 5.12E-13 1.69E-13 1.87E-12
  -0.2500 -0.3000  0.0000    1  1.42696E-12 kpt; spin; max resid(k); each band:
  1.23E-12 2.01E-14 2.20E-13 1.11E-14 1.43E-12
  -0.2000 -0.3000  0.0500    1  1.50674E-12 kpt; spin; max resid(k); each band:
  1.18E-12 8.67E-14 6.36E-13 5.65E-14 1.51E-12
  -0.1500 -0.3000  0.1000    1  1.64383E-12 kpt; spin; max resid(k); each band:
  1.08E-12 1.51E-13 9.83E-13 9.89E-14 1.64E-12
  -0.1000 -0.3000  0.1500    1  5.36404E-11 kpt; spin; max resid(k); each band:
  9.29E-13 2.23E-13 1.21E-12 9.89E-14 5.36E-11
  -0.0500 -0.3000  0.2000    1  1.19416E-12 kpt; spin; max resid(k); each band:
  3.47E-13 6.75E-13 4.00E-13 2.11E-13 1.19E-12
  -0.0500  0.4000  0.0000    1  1.85087E-12 kpt; spin; max resid(k); each band:
  4.42E-13 1.65E-12 3.10E-13 2.83E-14 1.85E-12
  -0.1000  0.4500  0.0000    1  2.01383E-12 kpt; spin; max resid(k); each band:
  5.53E-14 1.73E-12 5.75E-13 1.35E-14 2.01E-12
  -0.1500  0.5000  0.0000    1  1.55189E-12 kpt; spin; max resid(k); each band:
  3.90E-13 1.14E-12 5.74E-13 1.64E-14 1.55E-12
  -0.1000  0.5000  0.0500    1  2.89598E-12 kpt; spin; max resid(k); each band:
  1.34E-13 1.51E-12 6.69E-13 6.25E-14 2.90E-12
  -0.2000 -0.4500  0.0000    1  1.06781E-12 kpt; spin; max resid(k); each band:
  7.68E-13 7.33E-13 5.55E-13 1.39E-14 1.07E-12
  -0.1500 -0.4500  0.0500    1  1.43546E-12 kpt; spin; max resid(k); each band:
  5.98E-13 9.03E-13 6.31E-13 1.35E-13 1.44E-12
  -0.1000 -0.4500  0.1000    1  2.30658E-11 kpt; spin; max resid(k); each band:
  3.03E-13 1.33E-12 8.39E-13 9.50E-14 2.31E-11
  -0.0500 -0.4500  0.1500    1  1.65004E-12 kpt; spin; max resid(k); each band:
  1.25E-13 1.23E-12 5.68E-13 1.80E-13 1.65E-12
  -0.2500 -0.4000  0.0000    1  1.49413E-12 kpt; spin; max resid(k); each band:
  1.04E-12 2.95E-13 4.78E-13 1.10E-14 1.49E-12
[...]
 kpt#  26, nband=  5, wtk=  0.01200, kpt= -0.0500 -0.4000  0.1000 (reduced coord)
  -0.14409   -0.01918    0.12479    0.16669    0.30799
 kpt#  27, nband=  5, wtk=  0.00600, kpt= -0.2000 -0.3500  0.0000 (reduced coord)
  -0.17122    0.04786    0.13142    0.14571    0.27765
 kpt#  28, nband=  5, wtk=  0.01200, kpt= -0.1500 -0.3500  0.0500 (reduced coord)
  -0.16565    0.03103    0.12480    0.15268    0.29271
 kpt#  29, nband=  5, wtk=  0.01200, kpt= -0.1000 -0.3500  0.1000 (reduced coord)
  -0.15752    0.01366    0.11266    0.16074    0.31641
 kpt#  30, nband=  5, wtk=  0.01200, kpt= -0.0500 -0.3500  0.1500 (reduced coord)
  -0.14713   -0.00231    0.09955    0.16489    0.31298
 kpt#  31, nband=  5, wtk=  0.00600, kpt= -0.2500 -0.3000  0.0000 (reduced coord)
  -0.17695    0.06917    0.13843    0.14148    0.25537
 kpt#  32, nband=  5, wtk=  0.01200, kpt= -0.2000 -0.3000  0.0500 (reduced coord)
  -0.17404    0.05979    0.12791    0.14620    0.27191
 kpt#  33, nband=  5, wtk=  0.01200, kpt= -0.1500 -0.3000  0.1000 (reduced coord)
  -0.16829    0.04514    0.11190    0.15355    0.29905
 kpt#  34, nband=  5, wtk=  0.01200, kpt= -0.1000 -0.3000  0.1500 (reduced coord)
  -0.15983    0.02867    0.09539    0.16038    0.33217
 kpt#  35, nband=  5, wtk=  0.01200, kpt= -0.0500 -0.3000  0.2000 (reduced coord)
  -0.14886    0.01221    0.08059    0.16385    0.31285
 kpt#  36, nband=  5, wtk=  0.00600, kpt= -0.0500  0.4000  0.0000 (reduced coord)
  -0.15042   -0.02233    0.16316    0.17672    0.28217
 kpt#  37, nband=  5, wtk=  0.00600, kpt= -0.1000  0.4500  0.0000 (reduced coord)
  -0.13503   -0.03883    0.14110    0.16757    0.29482
 kpt#  38, nband=  5, wtk=  0.00600, kpt= -0.1500  0.5000  0.0000 (reduced coord)
  -0.13413   -0.03015    0.12152    0.15532    0.29302
 kpt#  39, nband=  5, wtk=  0.01200, kpt= -0.1000  0.5000  0.0500 (reduced coord)
  -0.13177   -0.03736    0.12723    0.15946    0.30281
 kpt#  40, nband=  5, wtk=  0.00600, kpt= -0.2000 -0.4500  0.0000 (reduced coord)
  -0.14341   -0.00335    0.10937    0.14361    0.28064
 kpt#  41, nband=  5, wtk=  0.01200, kpt= -0.1500 -0.4500  0.0500 (reduced coord)
  -0.13753   -0.01760    0.11078    0.14785    0.29434
 kpt#  42, nband=  5, wtk=  0.01200, kpt= -0.1000 -0.4500  0.1000 (reduced coord)
  -0.13107   -0.02878    0.10782    0.15097    0.31751
 kpt#  43, nband=  5, wtk=  0.01200, kpt= -0.0500 -0.4500  0.1500 (reduced coord)
  -0.12544   -0.03482    0.10146    0.15257    0.30041
 kpt#  44, nband=  5, wtk=  0.00600, kpt= -0.2500 -0.4000  0.0000 (reduced coord)
  -0.15276    0.02379    0.11067    0.13480    0.26602
 kpt#  45, nband=  5, wtk=  0.01200, kpt= -0.2000 -0.4000  0.0500 (reduced coord)
  -0.14774    0.01123    0.10477    0.13765    0.28065
 kpt#  46, nband=  5, wtk=  0.01200, kpt= -0.1500 -0.4000  0.1000 (reduced coord)
  -0.14055   -0.00280    0.09651    0.14088    0.30646
 kpt#  47, nband=  5, wtk=  0.01200, kpt= -0.1000 -0.4000  0.1500 (reduced coord)
  -0.13173   -0.01590    0.08664    0.14516    0.32469
 kpt#  48, nband=  5, wtk=  0.01200, kpt= -0.0500 -0.4000  0.2000 (reduced coord)
  -0.12216   -0.02643    0.07720    0.14796    0.29555
 kpt#  49, nband=  5, wtk=  0.00600, kpt= -0.3000 -0.3500  0.0000 (reduced coord)
  -0.15804    0.03711    0.12571    0.13013    0.24649
 kpt#  50, nband=  5, wtk=  0.01200, kpt= -0.2500 -0.3500  0.0500 (reduced coord)
  -0.15533    0.03153    0.11497    0.13104    0.26259
 prteigrs : prtvol=0 or 1, do not print more k-points.

 Total charge density [el/Bohr^3]
      Maximum=    8.6238E-02  at reduced coord.    0.1000    0.1000    0.7000
 Next maximum=    8.6238E-02  at reduced coord.    0.1000    0.7000    0.1000
      Minimum=    3.5706E-03  at reduced coord.    0.5000    0.5000    0.5000
 Next minimum=    3.5874E-03  at reduced coord.    0.7600    0.7400    0.7400
   Integrated=    8.0000E+00

 Cartesian components of stress tensor (hartree/bohr^3)
  sigma(1 1)= -7.61896893E-10  sigma(3 2)=  0.00000000E+00
  sigma(2 2)= -7.61896893E-10  sigma(3 1)=  0.00000000E+00
  sigma(3 3)= -7.61896893E-10  sigma(2 1)=  0.00000000E+00

-Cartesian components of stress tensor (GPa)         [Pressure=  2.2416E-05 GPa]
- sigma(1 1)= -2.24157767E-05  sigma(3 2)=  0.00000000E+00
- sigma(2 2)= -2.24157767E-05  sigma(3 1)=  0.00000000E+00
- sigma(3 3)= -2.24157767E-05  sigma(2 1)=  0.00000000E+00

== END DATASET(S) ==============================================================
================================================================================
  
 -outvars: echo values of variables after computation  --------
            acell      1.0200645510E+01  1.0200645510E+01  1.0200645510E+01 Bohr
              amu      2.80855000E+01
           diemac      1.20000000E+01
          dilatmx      1.05000000E+00
             ecut      5.00000000E+01 Hartree
           ecutsm      5.00000000E-01 Hartree
           etotal1    -8.8771365598E+00
            fcart1    -5.3570190469E-32  5.3570190469E-32 -5.3570190469E-32
                       5.3570190469E-32 -5.3570190469E-32  5.3570190469E-32
-          fftalg         112
           getwfk          -1
           ionmov           3
           jdtset        1
              kpt     -5.00000000E-02 -1.00000000E-01  0.00000000E+00
                      -5.00000000E-02 -2.00000000E-01  0.00000000E+00
                      -1.00000000E-01 -1.50000000E-01  0.00000000E+00
                      -5.00000000E-02 -1.50000000E-01  5.00000000E-02
                      -5.00000000E-02 -3.00000000E-01  0.00000000E+00
                      -1.00000000E-01 -2.50000000E-01  0.00000000E+00
                      -5.00000000E-02 -2.50000000E-01  5.00000000E-02
                      -1.50000000E-01 -2.00000000E-01  0.00000000E+00
                      -1.00000000E-01 -2.00000000E-01  5.00000000E-02
                      -5.00000000E-02 -2.00000000E-01  1.00000000E-01
                      -5.00000000E-02 -4.00000000E-01  0.00000000E+00
                      -1.00000000E-01 -3.50000000E-01  0.00000000E+00
                      -5.00000000E-02 -3.50000000E-01  5.00000000E-02
                      -1.50000000E-01 -3.00000000E-01  0.00000000E+00
                      -1.00000000E-01 -3.00000000E-01  5.00000000E-02
                      -5.00000000E-02 -3.00000000E-01  1.00000000E-01
                      -2.00000000E-01 -2.50000000E-01  0.00000000E+00
                      -1.50000000E-01 -2.50000000E-01  5.00000000E-02
                      -1.00000000E-01 -2.50000000E-01  1.00000000E-01
                      -5.00000000E-02 -2.50000000E-01  1.50000000E-01
                      -5.00000000E-02  5.00000000E-01  0.00000000E+00
                      -1.00000000E-01 -4.50000000E-01  0.00000000E+00
                      -5.00000000E-02 -4.50000000E-01  5.00000000E-02
                      -1.50000000E-01 -4.00000000E-01  0.00000000E+00
                      -1.00000000E-01 -4.00000000E-01  5.00000000E-02
                      -5.00000000E-02 -4.00000000E-01  1.00000000E-01
                      -2.00000000E-01 -3.50000000E-01  0.00000000E+00
                      -1.50000000E-01 -3.50000000E-01  5.00000000E-02
                      -1.00000000E-01 -3.50000000E-01  1.00000000E-01
                      -5.00000000E-02 -3.50000000E-01  1.50000000E-01
                      -2.50000000E-01 -3.00000000E-01  0.00000000E+00
                      -2.00000000E-01 -3.00000000E-01  5.00000000E-02
                      -1.50000000E-01 -3.00000000E-01  1.00000000E-01
                      -1.00000000E-01 -3.00000000E-01  1.50000000E-01
                      -5.00000000E-02 -3.00000000E-01  2.00000000E-01
                      -5.00000000E-02  4.00000000E-01  0.00000000E+00
                      -1.00000000E-01  4.50000000E-01  0.00000000E+00
                      -1.50000000E-01  5.00000000E-01  0.00000000E+00
                      -1.00000000E-01  5.00000000E-01  5.00000000E-02
                      -2.00000000E-01 -4.50000000E-01  0.00000000E+00
                      -1.50000000E-01 -4.50000000E-01  5.00000000E-02
                      -1.00000000E-01 -4.50000000E-01  1.00000000E-01
                      -5.00000000E-02 -4.50000000E-01  1.50000000E-01
                      -2.50000000E-01 -4.00000000E-01  0.00000000E+00
                      -2.00000000E-01 -4.00000000E-01  5.00000000E-02
                      -1.50000000E-01 -4.00000000E-01  1.00000000E-01
                      -1.00000000E-01 -4.00000000E-01  1.50000000E-01
                      -5.00000000E-02 -4.00000000E-01  2.00000000E-01
                      -3.00000000E-01 -3.50000000E-01  0.00000000E+00
                      -2.50000000E-01 -3.50000000E-01  5.00000000E-02
                       outvar_i_n : Printing only first  50 k-points.
         kptrlatt       10  -10   10    -10   10   10    -10  -10   10
          kptrlen      1.01800000E+02
P           mkmem         110
            natom           2
            nband           5
           ndtset           1
            ngfft          50      50      50
             nkpt         110
            nstep          10
             nsym          48
            ntime          10
           ntypat           1
              occ      2.000000  2.000000  2.000000  2.000000  0.000000
          optcell           1
            rprim      0.0000000000E+00  5.0000000000E-01  5.0000000000E-01
                       5.0000000000E-01  0.0000000000E+00  5.0000000000E-01
                       5.0000000000E-01  5.0000000000E-01  0.0000000000E+00
           shiftk      5.00000000E-01  5.00000000E-01  5.00000000E-01
          spgroup         227
           strten1    -7.6189689285E-10 -7.6189689274E-10 -7.6189689285E-10
                       0.0000000000E+00  0.0000000000E+00  0.0000000000E+00
           symrel      1  0  0   0  1  0   0  0  1      -1  0  0   0 -1  0   0  0 -1
                       0 -1  1   0 -1  0   1 -1  0       0  1 -1   0  1  0  -1  1  0
                      -1  0  0  -1  0  1  -1  1  0       1  0  0   1  0 -1   1 -1  0
                       0  1 -1   1  0 -1   0  0 -1       0 -1  1  -1  0  1   0  0  1
                      -1  0  0  -1  1  0  -1  0  1       1  0  0   1 -1  0   1  0 -1
                       0 -1  1   1 -1  0   0 -1  0       0  1 -1  -1  1  0   0  1  0
                       1  0  0   0  0  1   0  1  0      -1  0  0   0  0 -1   0 -1  0
                       0  1 -1   0  0 -1   1  0 -1       0 -1  1   0  0  1  -1  0  1
                      -1  0  1  -1  1  0  -1  0  0       1  0 -1   1 -1  0   1  0  0
                       0 -1  0   1 -1  0   0 -1  1       0  1  0  -1  1  0   0  1 -1
                       1  0 -1   0  0 -1   0  1 -1      -1  0  1   0  0  1   0 -1  1
                       0  1  0   0  0  1   1  0  0       0 -1  0   0  0 -1  -1  0  0
                       1  0 -1   0  1 -1   0  0 -1      -1  0  1   0 -1  1   0  0  1
                       0 -1  0   0 -1  1   1 -1  0       0  1  0   0  1 -1  -1  1  0
                      -1  0  1  -1  0  0  -1  1  0       1  0 -1   1  0  0   1 -1  0
                       0  1  0   1  0  0   0  0  1       0 -1  0  -1  0  0   0  0 -1
                       0  0 -1   0  1 -1   1  0 -1       0  0  1   0 -1  1  -1  0  1
                       1 -1  0   0 -1  1   0 -1  0      -1  1  0   0  1 -1   0  1  0
                       0  0  1   1  0  0   0  1  0       0  0 -1  -1  0  0   0 -1  0
                      -1  1  0  -1  0  0  -1  0  1       1 -1  0   1  0  0   1  0 -1
                       0  0  1   0  1  0   1  0  0       0  0 -1   0 -1  0  -1  0  0
                       1 -1  0   0 -1  0   0 -1  1      -1  1  0   0  1  0   0  1 -1
                       0  0 -1   1  0 -1   0  1 -1       0  0  1  -1  0  1   0 -1  1
                      -1  1  0  -1  0  1  -1  0  0       1 -1  0   1  0 -1   1  0  0
            tnons      0.0000000  0.0000000  0.0000000     0.2500000  0.2500000  0.2500000
                       0.0000000  0.0000000  0.0000000     0.2500000  0.2500000  0.2500000
                       0.0000000  0.0000000  0.0000000     0.2500000  0.2500000  0.2500000
                       0.0000000  0.0000000  0.0000000     0.2500000  0.2500000  0.2500000
                       0.0000000  0.0000000  0.0000000     0.2500000  0.2500000  0.2500000
                       0.0000000  0.0000000  0.0000000     0.2500000  0.2500000  0.2500000
                       0.0000000  0.0000000  0.0000000     0.2500000  0.2500000  0.2500000
                       0.0000000  0.0000000  0.0000000     0.2500000  0.2500000  0.2500000
                       0.0000000  0.0000000  0.0000000     0.2500000  0.2500000  0.2500000
                       0.0000000  0.0000000  0.0000000     0.2500000  0.2500000  0.2500000
                       0.0000000  0.0000000  0.0000000     0.2500000  0.2500000  0.2500000
                       0.0000000  0.0000000  0.0000000     0.2500000  0.2500000  0.2500000
                       0.0000000  0.0000000  0.0000000     0.2500000  0.2500000  0.2500000
                       0.0000000  0.0000000  0.0000000     0.2500000  0.2500000  0.2500000
                       0.0000000  0.0000000  0.0000000     0.2500000  0.2500000  0.2500000
                       0.0000000  0.0000000  0.0000000     0.2500000  0.2500000  0.2500000
                       0.0000000  0.0000000  0.0000000     0.2500000  0.2500000  0.2500000
                       0.0000000  0.0000000  0.0000000     0.2500000  0.2500000  0.2500000
                       0.0000000  0.0000000  0.0000000     0.2500000  0.2500000  0.2500000
                       0.0000000  0.0000000  0.0000000     0.2500000  0.2500000  0.2500000
                       0.0000000  0.0000000  0.0000000     0.2500000  0.2500000  0.2500000
                       0.0000000  0.0000000  0.0000000     0.2500000  0.2500000  0.2500000
                       0.0000000  0.0000000  0.0000000     0.2500000  0.2500000  0.2500000
                       0.0000000  0.0000000  0.0000000     0.2500000  0.2500000  0.2500000
           toldfe      1.00000000E-06 Hartree
            typat      1  1
              wtk        0.00600    0.00600    0.00600    0.01200    0.00600    0.00600
                         0.01200    0.00600    0.01200    0.01200    0.00600    0.00600
                         0.01200    0.00600    0.01200    0.01200    0.00600    0.01200
                         0.01200    0.01200    0.00600    0.00600    0.01200    0.00600
                         0.01200    0.01200    0.00600    0.01200    0.01200    0.01200
                         0.00600    0.01200    0.01200    0.01200    0.01200    0.00600
                         0.00600    0.00600    0.01200    0.00600    0.01200    0.01200
                         0.01200    0.00600    0.01200    0.01200    0.01200    0.01200
                         0.00600    0.01200
                       outvars : Printing only first  50 k-points.
           xangst      5.9991780647E-32 -5.9693074161E-32  2.0096829044E-32
                       1.3494872792E+00  1.3494872792E+00  1.3494872792E+00
            xcart      1.1336803565E-31 -1.1280356219E-31  3.7977503034E-32
                       2.5501613776E+00  2.5501613776E+00  2.5501613776E+00
             xred     -1.8449233886E-32  2.5895331880E-32 -3.6677119642E-33
                       2.5000000000E-01  2.5000000000E-01  2.5000000000E-01
            znucl       14.00000

================================================================================
  

================================================================================

 Suggested references for the acknowledgment of ABINIT usage.

 The users of ABINIT have little formal obligations with respect to the ABINIT group
 (those specified in the GNU General Public License, http://www.gnu.org/copyleft/gpl.txt).
 However, it is common practice in the scientific literature,
 to acknowledge the efforts of people that have made the research possible.
 In this spirit, please find below suggested citations of work written by ABINIT developers,
 corresponding to implementations inside of ABINIT that you have used in the present run.
 Note also that it will be of great value to readers of publications presenting these results,
 to read papers enabling them to understand the theoretical formalism and details
 of the ABINIT implementation.
 For information on why they are suggested, see also http://www.abinit.org/about/?text=acknowledgments.
-
- [1] Recent developments in the ABINIT software package
- X.Gonze, F.Jollet, F.Abreu Araujo, D.Adams, B.Amadon, T.Applencourt,
- C.Audouze, J.-M.Beuken, J.Bieder, A.Bokhanchuk, E.Bousquet, F.Bruneval
- D.Caliste, M.Cote, F.Dahm, F.Da Pieve, M.Delaveau, M.Di Gennaro,
- B.Dorado, C.Espejo, G.Geneste, L.Genovese, A.Gerossier, M.Giantomassi,
- Y.Gillet, D.R.Hamann, L.He, G.Jomard, J.Laflamme Janssen, S.Le Roux,
- A.Levitt, A.Lherbier, F.Liu, I.Lukacevic, A.Martin, C.Martins,
- M.J.T.Oliveira, S.Ponce, Y.Pouillon, T.Rangel, G.-M.Rignanese,
- A.H.Romero, B.Rousseau, O.Rubel, A.A.Shukri, M.Stankovski, M.Torrent,
- Comment : the fourth generic paper describing the ABINIT project.
- Note that a version of this paper, that is not formatted for Computer Phys. Comm. 
- is available at http://www.abinit.org/about/ABINIT16.pdf .
- The licence allows the authors to put it on the Web.
-
- [2] ABINIT : First-principles approach of materials and nanosystem properties.
- X. Gonze, B. Amadon, P.-M. Anglade, J.-M. Beuken, F. Bottin, P. Boulanger, F. Bruneval,
- D. Caliste, R. Caracas, M. Cote, T. Deutsch, L. Genovese, Ph. Ghosez, M. Giantomassi
- S. Goedecker, D.R. Hamann, P. Hermet, F. Jollet, G. Jomard, S. Leroux, M. Mancini, S. Mazevet,
- M.J.T. Oliveira, G. Onida, Y. Pouillon, T. Rangel, G.-M. Rignanese, D. Sangalli, R. Shaltaf,
- M. Torrent, M.J. Verstraete, G. Zerah, J.W. Zwanziger
- Computer Phys. Comm. 180, 2582-2615 (2009).
- Comment : the third generic paper describing the ABINIT project.
- Note that a version of this paper, that is not formatted for Computer Phys. Comm. 
- is available at http://www.abinit.org/about/ABINIT_CPC_v10.pdf .
- The licence allows the authors to put it on the Web.
-
- [3] A brief introduction to the ABINIT software package.
- X. Gonze, G.-M. Rignanese, M. Verstraete, J.-M. Beuken, Y. Pouillon, R. Caracas, F. Jollet,
- M. Torrent, G. Zerah, M. Mikami, Ph. Ghosez, M. Veithen, J.-Y. Raty, V. Olevano, F. Bruneval,
- L. Reining, R. Godby, G. Onida, D.R. Hamann, and D.C. Allan.
- Z. Kristallogr. 220, 558-562 (2005).
- Comment : the second generic paper describing the ABINIT project. Note that this paper
- should be cited especially if you are using the GW part of ABINIT, as several authors
- of this part are not in the list of authors of the first or third paper.
- The .pdf of the latter paper is available at http://www.abinit.org/about/zfk_0505-06_558-562.pdf.
- Note that it should not redistributed (Copyright by Oldenburg Wissenshaftverlag,
- the licence allows the authors to put it on the Web).
-
- And optionally:
-
- [4] First-principles computation of material properties : the ABINIT software project. 
- X. Gonze, J.-M. Beuken, R. Caracas, F. Detraux, M. Fuchs, G.-M. Rignanese, L. Sindic,
- M. Verstraete, G. Zerah, F. Jollet, M. Torrent, A. Roy, M. Mikami, Ph. Ghosez, J.-Y. Raty, D.C. Allan.
- Computational Materials Science 25, 478-492 (2002). http://dx.doi.org/10.1016/S0927-0256(02)00325-7
- Comment : the original paper describing the ABINIT project.
  Asked to delete not existent file: Si__STATUS
 Proc.   0 individual time (sec): cpu=        309.1  wall=        316.7

 Calculation completed.
.Delivered   0 WARNINGs and   0 COMMENTs to log file.

--- !FinalSummary
program: abinit
version: 8.0.7
start_datetime: Thu Apr 26 11:54:32 2018
end_datetime: Thu Apr 26 11:59:48 2018
overall_cpu_time:         309.1
overall_wall_time:         316.7
exit_requested_by_user: no 
timelimit: 0
pseudos: 
    Si  : 3916b143991b1cfa1542b130be320e5e
usepaw: 0
mpi_procs: 1
omp_threads: 1
num_warnings: 0
num_comments: 0
...
